
     Program PWSCF v.6.7MaX starts on 19Nov2021 at 14:45:53 

     This program is part of the open-source Quantum ESPRESSO suite
     for quantum simulation of materials; please cite
         "P. Giannozzi et al., J. Phys.:Condens. Matter 21 395502 (2009);
         "P. Giannozzi et al., J. Phys.:Condens. Matter 29 465901 (2017);
          URL http://www.quantum-espresso.org", 
     in publications or presentations arising from this work. More details at
     http://www.quantum-espresso.org/quote

     Parallel version (MPI), running on    10 processors

     MPI processes distributed on     1 nodes
     R & G space division:  proc/nbgrp/npool/nimage =      10
     Waiting for input...
     Reading input from standard input

     Current dimensions of program PWSCF are:
     Max number of different atomic species (ntypx) = 10
     Max number of k-points (npk) =  40000
     Max angular momentum in pseudopotentials (lmaxx) =  3
     file Zr.pbe-spn-kjpaw_psl.1.0.0.UPF: wavefunction(s)  4S 4P renormalized
     file Te.pbe-n-kjpaw_psl.1.0.0.UPF: wavefunction(s)  5S 5P renormalized

     Subspace diagonalization in iterative solution of the eigenvalue problem:
     a serial algorithm will be used

     Message from routine setup:
     using ibrav=0 with symmetry is DISCOURAGED, use correct ibrav instead
 
     Parallelization info
     --------------------
     sticks:   dense  smooth     PW     G-vecs:    dense   smooth      PW
     Min         734     293     87               115340    29174    4753
     Max         735     295     88               115345    29176    4760
     Sum        7345    2937    873              1153415   291749   47557
 


     bravais-lattice index     =            0
     lattice parameter (alat)  =      15.5510  a.u.
     unit-cell volume          =    3018.5011 (a.u.)^3
     number of atoms/cell      =           12
     number of atomic types    =            2
     number of electrons       =        84.00
     number of Kohn-Sham states=           50
     kinetic-energy cutoff     =      80.0000  Ry
     charge density cutoff     =     800.0000  Ry
     scf convergence threshold =      1.0E-10
     mixing beta               =       0.7000
     number of iterations used =            8  plain     mixing
     Exchange-correlation= SLA  PW   PBX  PBC
                           (   1   4   3   4   0   0   0)

     celldm(1)=  15.551040  celldm(2)=   0.000000  celldm(3)=   0.000000
     celldm(4)=   0.000000  celldm(5)=   0.000000  celldm(6)=   0.000000

     crystal axes: (cart. coord. in units of alat)
               a(1) = (   0.246007  -0.969268   0.000000 )  
               a(2) = (   0.246007   0.969268   0.000000 )  
               a(3) = (   0.000000   0.000000   1.683031 )  

     reciprocal axes: (cart. coord. in units 2 pi/alat)
               b(1) = (  2.032465 -0.515853  0.000000 )  
               b(2) = (  2.032465  0.515853  0.000000 )  
               b(3) = (  0.000000  0.000000  0.594166 )  


     PseudoPot. # 1 for Zr read from file:
     pseudo/Zr.pbe-spn-kjpaw_psl.1.0.0.UPF
     MD5 check sum: 02112c41713a0468aff2bb39ef194e36
     Pseudo is Projector augmented-wave + core cor, Zval = 12.0
     Generated using &quot;atomic&quot; code by A. Dal Corso  v.6.2.2
     Shape of augmentation charge: PSQ
     Using radial grid of 1225 points,  6 beta functions with: 
                l(1) =   0
                l(2) =   0
                l(3) =   1
                l(4) =   1
                l(5) =   2
                l(6) =   2
     Q(r) pseudized with 0 coefficients 


     PseudoPot. # 2 for Te read from file:
     pseudo/Te.pbe-n-kjpaw_psl.1.0.0.UPF
     MD5 check sum: 66247bff2bd9dbf220fbb0bf5ab56e9d
     Pseudo is Projector augmented-wave + core cor, Zval =  6.0
     Generated using &quot;atomic&quot; code by A. Dal Corso  v.6.3
     Shape of augmentation charge: PSQ
     Using radial grid of 1245 points,  6 beta functions with: 
                l(1) =   0
                l(2) =   0
                l(3) =   1
                l(4) =   1
                l(5) =   2
                l(6) =   2
     Q(r) pseudized with 0 coefficients 


     atomic species   valence    mass     pseudopotential
        Zr            12.00    91.22000     Zr( 1.00)
        Te             6.00   127.60000     Te( 1.00)

      8 Sym. Ops., with inversion, found ( 4 have fractional translation)



   Cartesian axes

     site n.     atom                  positions (alat units)
         1           Zr  tau(   1) = (   0.0000000   0.6056750   0.4207578  )
         2           Zr  tau(   2) = (   0.2460067   0.3635931   1.2622733  )
         3           Te  tau(   3) = (   0.2460067   0.3342497   0.4207578  )
         4           Te  tau(   4) = (   0.0000000   0.6350184   1.2622733  )
         5           Te  tau(   5) = (   0.2460067   0.8097950   0.2520424  )
         6           Te  tau(   6) = (   0.0000000   0.1594731   1.4309887  )
         7           Te  tau(   7) = (   0.2460067   0.8097950   0.5894732  )
         8           Te  tau(   8) = (   0.0000000   0.1594731   1.0935579  )
         9           Te  tau(   9) = (   0.0000000   0.4147735   0.7307695  )
        10           Te  tau(  10) = (   0.2460067   0.5544946   0.9522616  )
        11           Te  tau(  11) = (   0.0000000   0.4147735   0.1107461  )
        12           Te  tau(  12) = (   0.2460067   0.5544946   1.5722850  )

     number of k points=    63  Methfessel-Paxton smearing, width (Ry)=  0.0030
                       cart. coord. in units 2pi/alat
        k(    1) = (   0.0000000   0.0000000   0.0000000), wk =   0.0078125
        k(    2) = (   0.0000000   0.0000000   0.1485415), wk =   0.0156250
        k(    3) = (   0.0000000   0.0000000  -0.2970830), wk =   0.0078125
        k(    4) = (   0.2540581   0.0644816   0.0000000), wk =   0.0312500
        k(    5) = (   0.2540581   0.0644816   0.1485415), wk =   0.0625000
        k(    6) = (   0.2540581   0.0644816  -0.2970830), wk =   0.0312500
        k(    7) = (   0.5081162   0.1289633   0.0000000), wk =   0.0312500
        k(    8) = (   0.5081162   0.1289633   0.1485415), wk =   0.0625000
        k(    9) = (   0.5081162   0.1289633  -0.2970830), wk =   0.0312500
        k(   10) = (   0.7621743   0.1934449   0.0000000), wk =   0.0312500
        k(   11) = (   0.7621743   0.1934449   0.1485415), wk =   0.0625000
        k(   12) = (   0.7621743   0.1934449  -0.2970830), wk =   0.0312500
        k(   13) = (  -1.0162324  -0.2579266   0.0000000), wk =   0.0156250
        k(   14) = (  -1.0162324  -0.2579266   0.1485415), wk =   0.0312500
        k(   15) = (  -1.0162324  -0.2579266  -0.2970830), wk =   0.0156250
        k(   16) = (   0.5081162   0.0000000   0.0000000), wk =   0.0156250
        k(   17) = (   0.5081162   0.0000000   0.1485415), wk =   0.0312500
        k(   18) = (   0.5081162   0.0000000  -0.2970830), wk =   0.0156250
        k(   19) = (   0.7621743   0.0644816   0.0000000), wk =   0.0312500
        k(   20) = (   0.7621743   0.0644816   0.1485415), wk =   0.0625000
        k(   21) = (   0.7621743   0.0644816  -0.2970830), wk =   0.0312500
        k(   22) = (   1.0162324   0.1289633   0.0000000), wk =   0.0312500
        k(   23) = (   1.0162324   0.1289633   0.1485415), wk =   0.0625000
        k(   24) = (   1.0162324   0.1289633  -0.2970830), wk =   0.0312500
        k(   25) = (  -0.7621743  -0.3224082   0.0000000), wk =   0.0312500
        k(   26) = (  -0.7621743  -0.3224082   0.1485415), wk =   0.0625000
        k(   27) = (  -0.7621743  -0.3224082  -0.2970830), wk =   0.0312500
        k(   28) = (  -0.5081162  -0.2579266   0.0000000), wk =   0.0312500
        k(   29) = (  -0.5081162  -0.2579266   0.1485415), wk =   0.0625000
        k(   30) = (  -0.5081162  -0.2579266  -0.2970830), wk =   0.0312500
        k(   31) = (  -0.2540581  -0.1934449   0.0000000), wk =   0.0312500
        k(   32) = (  -0.2540581  -0.1934449   0.1485415), wk =   0.0625000
        k(   33) = (  -0.2540581  -0.1934449  -0.2970830), wk =   0.0312500
        k(   34) = (   0.0000000  -0.1289633   0.0000000), wk =   0.0156250
        k(   35) = (   0.0000000  -0.1289633   0.1485415), wk =   0.0312500
        k(   36) = (   0.0000000  -0.1289633  -0.2970830), wk =   0.0156250
        k(   37) = (   1.0162324   0.0000000   0.0000000), wk =   0.0156250
        k(   38) = (   1.0162324   0.0000000   0.1485415), wk =   0.0312500
        k(   39) = (   1.0162324   0.0000000  -0.2970830), wk =   0.0156250
        k(   40) = (   1.2702905   0.0644816   0.0000000), wk =   0.0312500
        k(   41) = (   1.2702905   0.0644816   0.1485415), wk =   0.0625000
        k(   42) = (   1.2702905   0.0644816  -0.2970830), wk =   0.0312500
        k(   43) = (  -0.5081162  -0.3868899   0.0000000), wk =   0.0312500
        k(   44) = (  -0.5081162  -0.3868899   0.1485415), wk =   0.0625000
        k(   45) = (  -0.5081162  -0.3868899  -0.2970830), wk =   0.0312500
        k(   46) = (  -0.2540581  -0.3224082   0.0000000), wk =   0.0312500
        k(   47) = (  -0.2540581  -0.3224082   0.1485415), wk =   0.0625000
        k(   48) = (  -0.2540581  -0.3224082  -0.2970830), wk =   0.0312500
        k(   49) = (   0.0000000  -0.2579266   0.0000000), wk =   0.0156250
        k(   50) = (   0.0000000  -0.2579266   0.1485415), wk =   0.0312500
        k(   51) = (   0.0000000  -0.2579266  -0.2970830), wk =   0.0156250
        k(   52) = (   1.5243485   0.0000000   0.0000000), wk =   0.0156250
        k(   53) = (   1.5243485   0.0000000   0.1485415), wk =   0.0312500
        k(   54) = (   1.5243485   0.0000000  -0.2970830), wk =   0.0156250
        k(   55) = (  -0.2540581  -0.4513715   0.0000000), wk =   0.0312500
        k(   56) = (  -0.2540581  -0.4513715   0.1485415), wk =   0.0625000
        k(   57) = (  -0.2540581  -0.4513715  -0.2970830), wk =   0.0312500
        k(   58) = (   0.0000000  -0.3868899   0.0000000), wk =   0.0156250
        k(   59) = (   0.0000000  -0.3868899   0.1485415), wk =   0.0312500
        k(   60) = (   0.0000000  -0.3868899  -0.2970830), wk =   0.0156250
        k(   61) = (  -2.0324647   0.0000000   0.0000000), wk =   0.0078125
        k(   62) = (  -2.0324647   0.0000000   0.1485415), wk =   0.0156250
        k(   63) = (  -2.0324647   0.0000000  -0.2970830), wk =   0.0078125

     Dense  grid:  1153415 G-vectors     FFT dimensions: ( 144, 144, 240)

     Smooth grid:   291749 G-vectors     FFT dimensions: (  90,  90, 150)

     Estimated max dynamical RAM per process >     657.19 MB

     Estimated total dynamical RAM >       6.42 GB

     Initial potential from superposition of free atoms

     starting charge   83.99353, renormalised to   84.00000
     Starting wfcs are   66 randomized atomic wfcs
     Checking if some PAW data can be deallocated... 

     total cpu time spent up to now is       34.3 secs

     Self-consistent Calculation

     iteration #  1     ecut=    80.00 Ry     beta= 0.70
     Davidson diagonalization with overlap
     ethr =  1.00E-02,  avg # of iterations =  2.0

     Threshold (ethr) on eigenvalues was too large:
     Diagonalizing with lowered threshold

     Davidson diagonalization with overlap
     ethr =  4.15E-04,  avg # of iterations =  4.0

     total cpu time spent up to now is      194.2 secs

     total energy              =   -4240.73187869 Ry
     estimated scf accuracy    <       0.43427955 Ry

     iteration #  2     ecut=    80.00 Ry     beta= 0.70
     Davidson diagonalization with overlap
     ethr =  5.17E-04,  avg # of iterations =  7.6

     total cpu time spent up to now is      304.2 secs

     total energy              =   -4240.63719577 Ry
     estimated scf accuracy    <       2.06556173 Ry

     iteration #  3     ecut=    80.00 Ry     beta= 0.70
     Davidson diagonalization with overlap
     ethr =  5.17E-04,  avg # of iterations =  5.2

     total cpu time spent up to now is      397.4 secs

     total energy              =   -4240.93758713 Ry
     estimated scf accuracy    <       0.01079207 Ry

     iteration #  4     ecut=    80.00 Ry     beta= 0.70
     Davidson diagonalization with overlap
     c_bands:  2 eigenvalues not converged
     c_bands:  1 eigenvalues not converged
     c_bands:  2 eigenvalues not converged
     c_bands:  1 eigenvalues not converged
     c_bands:  2 eigenvalues not converged
     c_bands:  1 eigenvalues not converged
     c_bands:  1 eigenvalues not converged
     c_bands:  2 eigenvalues not converged
     c_bands:  1 eigenvalues not converged
     c_bands:  1 eigenvalues not converged
     c_bands:  2 eigenvalues not converged
     c_bands:  1 eigenvalues not converged
     c_bands:  2 eigenvalues not converged
     c_bands:  2 eigenvalues not converged
     c_bands:  1 eigenvalues not converged
     c_bands:  1 eigenvalues not converged
     c_bands:  1 eigenvalues not converged
     c_bands:  1 eigenvalues not converged
     ethr =  1.28E-05,  avg # of iterations = 17.1

     total cpu time spent up to now is      574.0 secs

     total energy              =   -4240.95018466 Ry
     estimated scf accuracy    <       0.06915431 Ry

     iteration #  5     ecut=    80.00 Ry     beta= 0.70
     Davidson diagonalization with overlap
     ethr =  1.28E-05,  avg # of iterations =  7.1

     total cpu time spent up to now is      665.9 secs

     total energy              =   -4240.95219142 Ry
     estimated scf accuracy    <       0.01309952 Ry

     iteration #  6     ecut=    80.00 Ry     beta= 0.70
     Davidson diagonalization with overlap
     ethr =  1.28E-05,  avg # of iterations =  3.5

     total cpu time spent up to now is      742.0 secs

     total energy              =   -4240.95316259 Ry
     estimated scf accuracy    <       0.00154080 Ry

     iteration #  7     ecut=    80.00 Ry     beta= 0.70
     Davidson diagonalization with overlap
     c_bands:  1 eigenvalues not converged
     c_bands:  1 eigenvalues not converged
     ethr =  1.83E-06,  avg # of iterations = 11.9

     total cpu time spent up to now is      866.5 secs

     total energy              =   -4240.95394344 Ry
     estimated scf accuracy    <       0.00168070 Ry

     iteration #  8     ecut=    80.00 Ry     beta= 0.70
     Davidson diagonalization with overlap
     c_bands:  1 eigenvalues not converged
     ethr =  1.83E-06,  avg # of iterations =  2.6

     total cpu time spent up to now is      936.1 secs

     total energy              =   -4240.95398294 Ry
     estimated scf accuracy    <       0.00026372 Ry

     iteration #  9     ecut=    80.00 Ry     beta= 0.70
     Davidson diagonalization with overlap
     ethr =  3.14E-07,  avg # of iterations =  6.3

     total cpu time spent up to now is     1025.9 secs

     total energy              =   -4240.95406677 Ry
     estimated scf accuracy    <       0.00003036 Ry

     iteration # 10     ecut=    80.00 Ry     beta= 0.70
     Davidson diagonalization with overlap
     ethr =  3.61E-08,  avg # of iterations =  3.2

     total cpu time spent up to now is     1099.9 secs

     total energy              =   -4240.95406979 Ry
     estimated scf accuracy    <       0.00000589 Ry

     iteration # 11     ecut=    80.00 Ry     beta= 0.70
     Davidson diagonalization with overlap
     ethr =  7.01E-09,  avg # of iterations =  6.0

     total cpu time spent up to now is     1191.1 secs

     total energy              =   -4240.95407234 Ry
     estimated scf accuracy    <       0.00000114 Ry

     iteration # 12     ecut=    80.00 Ry     beta= 0.70
     Davidson diagonalization with overlap
     ethr =  1.36E-09,  avg # of iterations =  3.1

     total cpu time spent up to now is     1264.3 secs

     total energy              =   -4240.95407248 Ry
     estimated scf accuracy    <       0.00000008 Ry

     iteration # 13     ecut=    80.00 Ry     beta= 0.70
     Davidson diagonalization with overlap
     ethr =  9.25E-11,  avg # of iterations =  8.5

     total cpu time spent up to now is     1378.8 secs

     total energy              =   -4240.95407255 Ry
     estimated scf accuracy    <       0.00000009 Ry

     iteration # 14     ecut=    80.00 Ry     beta= 0.70
     Davidson diagonalization with overlap
     ethr =  9.25E-11,  avg # of iterations =  1.7

     total cpu time spent up to now is     1445.5 secs

     total energy              =   -4240.95407254 Ry
     estimated scf accuracy    <       0.00000003 Ry

     iteration # 15     ecut=    80.00 Ry     beta= 0.70
     Davidson diagonalization with overlap
     ethr =  3.26E-11,  avg # of iterations =  5.9

     total cpu time spent up to now is     1531.7 secs

     total energy              =   -4240.95407255 Ry
     estimated scf accuracy    <          2.3E-09 Ry

     iteration # 16     ecut=    80.00 Ry     beta= 0.70
     Davidson diagonalization with overlap
     ethr =  2.73E-12,  avg # of iterations =  5.1

     total cpu time spent up to now is     1612.2 secs

     total energy              =   -4240.95407255 Ry
     estimated scf accuracy    <          2.0E-09 Ry

     iteration # 17     ecut=    80.00 Ry     beta= 0.70
     Davidson diagonalization with overlap
     ethr =  2.35E-12,  avg # of iterations =  2.3

     total cpu time spent up to now is     1680.4 secs

     total energy              =   -4240.95407255 Ry
     estimated scf accuracy    <          5.8E-10 Ry

     iteration # 18     ecut=    80.00 Ry     beta= 0.70
     Davidson diagonalization with overlap
     ethr =  6.89E-13,  avg # of iterations =  5.6

     total cpu time spent up to now is     1749.6 secs

     End of self-consistent calculation

          k = 0.0000 0.0000 0.0000 ( 36359 PWs)   bands (ev):

   -44.1341 -44.1341 -22.2603 -22.2602 -22.1669 -22.1669 -22.0643 -22.0642
    -7.8630  -7.4963  -7.1302  -6.8633  -6.3091  -5.4091  -4.9293  -4.8395
    -4.7883  -3.8344   0.3408   0.7496   0.7697   1.1196   1.4522   1.5302
     2.2644   2.3357   2.5607   2.7383   2.9455   3.0106   3.2504   3.4078
     3.6982   3.7953   3.9720   4.0689   4.2473   4.3373   4.3588   4.6756
     4.8498   5.4906   5.6360   5.8331   5.8427   5.9460   6.1550   6.8284
     6.9875   7.2716

          k = 0.0000 0.0000 0.1485 ( 36415 PWs)   bands (ev):

   -44.1341 -44.1341 -22.2603 -22.2602 -22.1669 -22.1669 -22.0643 -22.0642
    -7.8284  -7.5886  -7.0473  -6.8809  -6.2320  -5.6646  -4.8396  -4.7970
    -4.6451  -3.9500   0.4066   0.8047   0.9011   1.0075   1.0785   1.9144
     2.0609   2.2916   2.4810   2.8048   2.9309   3.1161   3.3916   3.4019
     3.7055   3.8587   3.9532   4.0712   4.1850   4.3577   4.3763   4.6776
     4.7742   4.9879   5.8078   5.9477   5.9513   6.0274   6.5085   6.6332
     6.8091   7.1942

          k = 0.0000 0.0000-0.2971 ( 36410 PWs)   bands (ev):

   -44.1341 -44.1341 -22.2603 -22.2603 -22.1669 -22.1669 -22.0642 -22.0642
    -7.7295  -7.7295  -6.9396  -6.9396  -6.0023  -6.0023  -4.8177  -4.8177
    -4.2528  -4.2528   0.6221   0.6221   0.9254   0.9254   1.3596   1.3596
     2.3693   2.3693   2.6390   2.6390   2.8846   2.8846   3.5000   3.5000
     3.8927   3.8927   4.0202   4.0202   4.3478   4.3478   4.3904   4.3904
     4.6981   4.6981   5.9335   5.9335   6.2234   6.2234   6.4241   6.4241
     6.9863   6.9864

          k = 0.2541 0.0645 0.0000 ( 36396 PWs)   bands (ev):

   -44.1337 -44.1337 -22.2583 -22.2583 -22.1767 -22.1767 -22.0631 -22.0630
    -7.7448  -7.3833  -7.0594  -6.8156  -6.2475  -5.3641  -4.9461  -4.7965
    -4.7445  -3.9879   0.4267   0.8756   0.8986   1.2364   1.2651   1.4106
     1.7863   1.8519   2.0045   2.5670   2.5923   3.1619   3.3111   3.7233
     3.7520   3.7535   3.8086   3.8260   4.0270   4.2474   4.2909   4.3005
     4.4909   4.5782   5.8186   5.9787   6.2183   6.5858   6.5908   6.7516
     7.0125   7.1767

          k = 0.2541 0.0645 0.1485 ( 36423 PWs)   bands (ev):

   -44.1337 -44.1337 -22.2583 -22.2583 -22.1767 -22.1767 -22.0631 -22.0630
    -7.7109  -7.4753  -6.9815  -6.8315  -6.1683  -5.6110  -4.8138  -4.7550
    -4.6657  -4.0800   0.4805   0.9287   0.9406   0.9603   1.1860   1.4344
     1.7761   2.0859   2.2440   2.5509   2.5766   2.9500   3.3397   3.3536
     3.5644   3.7720   3.9313   3.9486   4.0299   4.1534   4.3260   4.3428
     4.6829   4.8557   5.8428   5.9298   6.1705   6.2626   6.4152   6.7401
     7.2239   7.2978

          k = 0.2541 0.0645-0.2971 ( 36436 PWs)   bands (ev):

   -44.1337 -44.1337 -22.2583 -22.2583 -22.1767 -22.1767 -22.0631 -22.0631
    -7.6139  -7.6139  -6.8842  -6.8842  -5.9390  -5.9390  -4.7808  -4.7808
    -4.3305  -4.3305   0.6545   0.6545   1.0276   1.0276   1.1708   1.1708
     2.1185   2.1185   2.4755   2.4755   2.6703   2.6703   3.1896   3.1896
     3.6324   3.6324   3.9410   3.9410   4.1091   4.1091   4.3502   4.3502
     5.0314   5.0314   5.7792   5.7792   6.1411   6.1411   6.4465   6.4465
     7.4072   7.4073

          k = 0.5081 0.1290 0.0000 ( 36499 PWs)   bands (ev):

   -44.1328 -44.1328 -22.2536 -22.2536 -22.2001 -22.2001 -22.0603 -22.0602
    -7.4059  -7.0545  -6.8919  -6.6909  -6.0589  -5.2621  -5.0588  -4.6847
    -4.6363  -4.4458   0.4040   0.6000   0.6398   1.2030   1.2297   1.4148
     1.6552   1.6957   1.9651   2.1047   2.1659   2.2533   2.4288   3.3772
     3.4617   3.5082   3.5364   3.5903   3.7723   3.8744   3.9283   4.1791
     4.4175   5.0596   5.5875   6.0545   6.1024   6.5884   6.6069   6.9507
     7.4471   7.5644

          k = 0.5081 0.1290 0.1485 ( 36476 PWs)   bands (ev):

   -44.1328 -44.1328 -22.2536 -22.2536 -22.2001 -22.2001 -22.0603 -22.0602
    -7.3743  -7.1525  -6.8183  -6.7032  -5.9791  -5.4816  -4.8898  -4.6660
    -4.6487  -4.4737   0.4082   0.6329   0.7586   1.0031   1.2548   1.3675
     1.4351   1.5632   2.0188   2.0957   2.3481   2.4588   2.8052   3.3991
     3.4220   3.4635   3.5242   3.5898   3.7106   3.7509   3.8494   4.2320
     4.3174   4.5061   6.1416   6.1804   6.3225   6.5901   6.6502   6.8158
     7.2858   7.5094

          k = 0.5081 0.1290-0.2971 ( 36466 PWs)   bands (ev):

   -44.1328 -44.1328 -22.2536 -22.2536 -22.2001 -22.2001 -22.0603 -22.0603
    -7.2839  -7.2839  -6.7431  -6.7431  -5.7653  -5.7653  -4.7436  -4.7436
    -4.5565  -4.5565   0.5127   0.5127   1.0268   1.0268   1.0959   1.0959
     1.4195   1.4195   2.0581   2.0581   2.7066   2.7066   3.1615   3.1615
     3.4004   3.4004   3.5548   3.5548   3.7135   3.7135   3.8361   3.8361
     4.3127   4.3127   6.3836   6.3836   6.5599   6.5599   6.8336   6.8336
     7.1432   7.1432

          k = 0.7622 0.1934 0.0000 ( 36521 PWs)   bands (ev):

   -44.1319 -44.1319 -22.2488 -22.2488 -22.2234 -22.2234 -22.0575 -22.0574
    -6.9389  -6.7383  -6.5465  -6.4893  -5.7801  -5.3915  -5.2128  -5.1097
    -4.5604  -4.5241   0.0153   0.0316   0.5002   1.0089   1.0326   1.2705
     1.4825   1.6033   1.9692   2.0822   2.2461   2.3560   2.4177   2.7899
     2.8919   3.2656   3.3397   3.4501   3.5918   3.6773   3.7105   3.8010
     3.8414   4.5641   5.9142   6.3271   6.3855   6.8441   6.8550   6.9431
     7.3086   7.6193

          k = 0.7622 0.1934 0.1485 ( 36503 PWs)   bands (ev):

   -44.1319 -44.1319 -22.2488 -22.2488 -22.2234 -22.2234 -22.0575 -22.0574
    -6.9160  -6.7777  -6.5342  -6.4958  -5.7222  -5.4516  -5.1940  -5.1234
    -4.5517  -4.5267   0.0127   0.2069   0.3751   0.9023   1.0077   1.2303
     1.4952   1.6249   1.9028   2.0598   2.1295   2.6214   2.6900   2.8501
     2.8894   3.0852   3.2714   3.3901   3.5270   3.6229   3.6572   3.9326
     3.9743   4.5290   5.6868   6.3496   6.6536   6.7512   6.9188   6.9805
     7.0857   7.5843

          k = 0.7622 0.1934-0.2971 ( 36522 PWs)   bands (ev):

   -44.1319 -44.1319 -22.2488 -22.2488 -22.2234 -22.2234 -22.0575 -22.0575
    -6.8541  -6.8541  -6.5129  -6.5129  -5.5872  -5.5872  -5.1571  -5.1571
    -4.5363  -4.5363   0.1514   0.1514   0.5487   0.5487   1.0827   1.0827
     1.5669   1.5669   2.0139   2.0139   2.3798   2.3798   2.8195   2.8195
     2.9885   2.9885   3.3219   3.3219   3.5953   3.5953   3.8858   3.8858
     4.0909   4.0909   6.1535   6.1535   6.4512   6.4512   6.9814   6.9814
     7.4340   7.4340

          k =-1.0162-0.2579 0.0000 ( 36506 PWs)   bands (ev):

   -44.1315 -44.1315 -22.2467 -22.2467 -22.2332 -22.2332 -22.0563 -22.0563
    -6.7146  -6.6944  -5.9980  -5.9869  -5.9453  -5.9380  -5.3319  -5.3313
    -4.5032  -4.4777  -0.0216   0.0009   0.2999   0.3214   1.0121   1.0212
     1.4683   1.6695   2.2331   2.3911   2.4008   2.4138   2.8036   2.8049
     2.8149   2.8412   3.2124   3.2599   3.3192   3.4123   3.4956   3.7082
     3.7866   4.0828   6.5585   6.5728   6.5813   6.6504   7.0289   7.1260
     7.1322   7.1568

          k =-1.0162-0.2579 0.1485 ( 36506 PWs)   bands (ev):

   -44.1315 -44.1315 -22.2467 -22.2467 -22.2332 -22.2332 -22.0563 -22.0563
    -6.7107  -6.6964  -6.0194  -6.0114  -5.9224  -5.9174  -5.3288  -5.3284
    -4.5028  -4.4848  -0.1189  -0.1120   0.5189   0.5260   1.0101   1.0269
     1.4641   1.5949   1.9924   2.0936   2.3738   2.3981   2.7005   2.7026
     2.9396   3.0323   3.1016   3.1938   3.5554   3.5724   3.6507   3.7543
     4.0282   4.1452   6.0315   6.0481   6.4906   6.5664   7.1084   7.1312
     7.3307   7.3812

          k =-1.0162-0.2579-0.2971 ( 36528 PWs)   bands (ev):

   -44.1315 -44.1315 -22.2467 -22.2467 -22.2332 -22.2332 -22.0563 -22.0563
    -6.7026  -6.7026  -6.0308  -6.0308  -5.9058  -5.9058  -5.3256  -5.3256
    -4.4972  -4.4972  -0.1788  -0.1788   0.7716   0.7716   0.9531   0.9531
     1.5271   1.5271   1.7637   1.7637   2.3737   2.3737   2.7692   2.7692
     2.8997   2.8997   3.1649   3.1649   3.6337   3.6337   3.8046   3.8046
     4.3712   4.3712   5.5884   5.5884   6.4434   6.4434   7.1416   7.1416
     7.4364   7.4364

          k = 0.5081 0.0000 0.0000 ( 36503 PWs)   bands (ev):

   -44.1328 -44.1328 -22.2536 -22.2536 -22.2001 -22.2001 -22.0603 -22.0602
    -7.4099  -7.0552  -6.8928  -6.6869  -6.0553  -5.2622  -5.0559  -4.6791
    -4.6430  -4.4453   0.4096   0.6145   0.6196   1.1983   1.2151   1.3885
     1.6549   1.6929   1.9512   2.1123   2.1728   2.2256   2.4279   3.3673
     3.4860   3.4994   3.5736   3.5828   3.7792   3.9130   3.9287   4.2164
     4.4195   5.0555   5.5933   6.0319   6.1383   6.5500   6.5554   6.9865
     7.4620   7.5794

          k = 0.5081 0.0000 0.1485 ( 36453 PWs)   bands (ev):

   -44.1328 -44.1328 -22.2536 -22.2536 -22.2001 -22.2001 -22.0603 -22.0602
    -7.3781  -7.1548  -6.8169  -6.6992  -5.9766  -5.4814  -4.8853  -4.6677
    -4.6483  -4.4748   0.4104   0.6277   0.7594   1.0062   1.2480   1.3670
     1.4009   1.5430   2.0161   2.1053   2.3750   2.4090   2.8015   3.3918
     3.4608   3.4786   3.4931   3.5991   3.7034   3.8222   3.8371   4.2724
     4.3288   4.4987   6.1351   6.1901   6.3407   6.5419   6.6133   6.8479
     7.3063   7.5183

          k = 0.5081 0.0000-0.2971 ( 36452 PWs)   bands (ev):

   -44.1328 -44.1328 -22.2536 -22.2536 -22.2001 -22.2001 -22.0603 -22.0603
    -7.2872  -7.2872  -6.7397  -6.7397  -5.7644  -5.7644  -4.7397  -4.7397
    -4.5593  -4.5593   0.5101   0.5101   1.0276   1.0276   1.1053   1.1053
     1.3814   1.3814   2.0604   2.0604   2.6975   2.6975   3.1518   3.1518
     3.4031   3.4031   3.5712   3.5712   3.7412   3.7412   3.8350   3.8350
     4.3332   4.3332   6.3993   6.3993   6.5238   6.5238   6.8511   6.8511
     7.1443   7.1443

          k = 0.7622 0.0645 0.0000 ( 36505 PWs)   bands (ev):

   -44.1319 -44.1319 -22.2488 -22.2488 -22.2234 -22.2234 -22.0575 -22.0574
    -6.9474  -6.7360  -6.5479  -6.4817  -5.7800  -5.3883  -5.2134  -5.1090
    -4.5509  -4.5344   0.0113   0.0417   0.5154   1.0210   1.0405   1.2845
     1.4455   1.5652   1.9393   2.1010   2.2605   2.3368   2.3563   2.7646
     2.8803   3.3144   3.3598   3.4863   3.6004   3.6332   3.7052   3.8282
     3.8575   4.5975   5.9117   6.3195   6.3800   6.8268   6.9015   6.9018
     7.3243   7.6355

          k = 0.7622 0.0645 0.1485 ( 36509 PWs)   bands (ev):

   -44.1319 -44.1319 -22.2488 -22.2488 -22.2234 -22.2234 -22.0575 -22.0574
    -6.9239  -6.7794  -6.5314  -6.4882  -5.7226  -5.4507  -5.1931  -5.1225
    -4.5452  -4.5340   0.0181   0.2067   0.3843   0.8988   1.0285   1.2455
     1.4625   1.6243   1.9326   1.9919   2.0577   2.6361   2.6774   2.8382
     2.8705   3.0884   3.3254   3.3975   3.5432   3.6129   3.6544   3.9595
     3.9969   4.5258   5.7120   6.3286   6.6651   6.7515   6.9279   6.9839
     7.0596   7.6038

          k = 0.7622 0.0645-0.2971 ( 36472 PWs)   bands (ev):

   -44.1319 -44.1319 -22.2488 -22.2488 -22.2234 -22.2234 -22.0575 -22.0575
    -6.8600  -6.8600  -6.5062  -6.5062  -5.5878  -5.5878  -5.1556  -5.1556
    -4.5366  -4.5366   0.1589   0.1589   0.5419   0.5419   1.1053   1.1053
     1.5606   1.5606   1.9634   1.9634   2.3575   2.3575   2.8214   2.8214
     2.9743   2.9743   3.3806   3.3806   3.5924   3.5924   3.8723   3.8723
     4.1092   4.1092   6.1791   6.1791   6.4518   6.4518   6.9491   6.9491
     7.4616   7.4616

          k = 1.0162 0.1290 0.0000 ( 36514 PWs)   bands (ev):

   -44.1315 -44.1315 -22.2467 -22.2467 -22.2332 -22.2332 -22.0563 -22.0563
    -6.7146  -6.6944  -5.9978  -5.9871  -5.9453  -5.9380  -5.3319  -5.3313
    -4.5032  -4.4777  -0.0274   0.0068   0.2958   0.3255   1.0056   1.0288
     1.4743   1.6602   2.2321   2.3918   2.3948   2.4138   2.7963   2.8071
     2.8084   2.8709   3.2302   3.2430   3.3009   3.4005   3.5370   3.6878
     3.7721   4.0966   6.5475   6.5677   6.5929   6.6572   7.0477   7.1271
     7.1343   7.1436

          k = 1.0162 0.1290 0.1485 ( 36524 PWs)   bands (ev):

   -44.1315 -44.1315 -22.2467 -22.2467 -22.2332 -22.2332 -22.0563 -22.0563
    -6.7107  -6.6964  -6.0193  -6.0115  -5.9224  -5.9175  -5.3288  -5.3284
    -4.5028  -4.4848  -0.1211  -0.1101   0.5202   0.5253   1.0121   1.0253
     1.4695   1.5896   2.0044   2.0769   2.3734   2.3933   2.6601   2.7498
     2.9517   3.0437   3.0923   3.1849   3.5282   3.6080   3.6499   3.7453
     4.0079   4.1647   6.0241   6.0590   6.4874   6.5690   7.1138   7.1303
     7.3383   7.3743

          k = 1.0162 0.1290-0.2971 ( 36516 PWs)   bands (ev):

   -44.1315 -44.1315 -22.2467 -22.2467 -22.2332 -22.2332 -22.0563 -22.0563
    -6.7026  -6.7026  -6.0308  -6.0308  -5.9058  -5.9058  -5.3256  -5.3256
    -4.4972  -4.4972  -0.1789  -0.1789   0.7721   0.7721   0.9530   0.9530
     1.5280   1.5280   1.7645   1.7645   2.3649   2.3649   2.7532   2.7532
     2.9424   2.9424   3.1443   3.1443   3.6370   3.6370   3.8013   3.8013
     4.3717   4.3717   5.5908   5.5908   6.4428   6.4428   7.1432   7.1432
     7.4372   7.4372

          k =-0.7622-0.3224 0.0000 ( 36511 PWs)   bands (ev):

   -44.1319 -44.1319 -22.2488 -22.2488 -22.2234 -22.2234 -22.0575 -22.0574
    -6.9260  -6.7426  -6.5444  -6.5001  -5.7803  -5.3959  -5.2118  -5.1108
    -4.5678  -4.5153   0.0176   0.0211   0.4790   0.9767   1.0489   1.2531
     1.5040   1.6668   2.0303   2.0588   2.2633   2.3817   2.4481   2.8262
     2.9046   3.2078   3.3235   3.4495   3.5662   3.6517   3.6664   3.8005
     3.8771   4.5078   5.9177   6.3189   6.4233   6.7619   6.8985   7.0093
     7.2767   7.5986

          k =-0.7622-0.3224 0.1485 ( 36492 PWs)   bands (ev):

   -44.1319 -44.1319 -22.2488 -22.2488 -22.2234 -22.2234 -22.0575 -22.0574
    -6.9040  -6.7760  -6.5382  -6.5067  -5.7216  -5.4531  -5.1954  -5.1247
    -4.5568  -4.5205   0.0045   0.2085   0.3615   0.9001   0.9942   1.2099
     1.5308   1.6292   1.8847   2.1620   2.2113   2.6071   2.6895   2.8686
     2.9066   3.1029   3.2082   3.3740   3.4756   3.6043   3.7030   3.8813
     3.9542   4.5321   5.6532   6.3834   6.6265   6.7488   6.8885   7.0236
     7.1142   7.5461

          k =-0.7622-0.3224-0.2971 ( 36508 PWs)   bands (ev):

   -44.1319 -44.1319 -22.2488 -22.2488 -22.2234 -22.2234 -22.0575 -22.0575
    -6.8454  -6.8454  -6.5227  -6.5227  -5.5864  -5.5864  -5.1591  -5.1591
    -4.5359  -4.5359   0.1410   0.1410   0.5580   0.5580   1.0561   1.0561
     1.5752   1.5752   2.0708   2.0708   2.4303   2.4303   2.8179   2.8179
     3.0096   3.0096   3.2385   3.2385   3.5936   3.5936   3.8874   3.8874
     4.0783   4.0783   6.1203   6.1203   6.4491   6.4491   7.0345   7.0345
     7.3870   7.3870

          k =-0.5081-0.2579 0.0000 ( 36480 PWs)   bands (ev):

   -44.1328 -44.1328 -22.2536 -22.2536 -22.2001 -22.2001 -22.0603 -22.0602
    -7.3961  -7.0529  -6.8901  -6.7002  -6.0676  -5.2617  -5.0657  -4.6931
    -4.6250  -4.4469   0.3909   0.5964   0.6527   1.2140   1.2748   1.4796
     1.6538   1.7114   2.0003   2.0861   2.1620   2.2991   2.4283   3.3907
     3.3987   3.4649   3.5481   3.5772   3.7500   3.7742   3.9475   4.1018
     4.4086   5.0676   5.5758   6.0094   6.1176   6.6867   6.7283   6.8656
     7.3994   7.5310

          k =-0.5081-0.2579 0.1485 ( 36485 PWs)   bands (ev):

   -44.1328 -44.1328 -22.2536 -22.2536 -22.2001 -22.2001 -22.0603 -22.0602
    -7.3648  -7.1469  -6.8224  -6.7126  -5.9852  -5.4818  -4.9003  -4.6625
    -4.6495  -4.4710   0.4031   0.6445   0.7548   0.9961   1.2757   1.3747
     1.5134   1.6218   2.0174   2.0797   2.3316   2.5241   2.8139   3.3311
     3.4174   3.4580   3.5527   3.5673   3.6151   3.7341   3.8494   4.1513
     4.2790   4.5196   6.1286   6.1801   6.2852   6.6924   6.7433   6.7557
     7.2299   7.4910

          k =-0.5081-0.2579-0.2971 ( 36478 PWs)   bands (ev):

   -44.1328 -44.1328 -22.2536 -22.2536 -22.2001 -22.2001 -22.0603 -22.0603
    -7.2755  -7.2755  -6.7516  -6.7516  -5.7674  -5.7674  -4.7527  -4.7527
    -4.5501  -4.5501   0.5184   0.5184   1.0238   1.0238   1.0796   1.0796
     1.5141   1.5141   2.0485   2.0485   2.7330   2.7330   3.1743   3.1743
     3.3851   3.3851   3.4928   3.4928   3.6874   3.6874   3.8344   3.8344
     4.2636   4.2636   6.3472   6.3472   6.6366   6.6366   6.7962   6.7962
     7.1479   7.1479

          k =-0.2541-0.1934 0.0000 ( 36410 PWs)   bands (ev):

   -44.1337 -44.1337 -22.2583 -22.2583 -22.1767 -22.1767 -22.0631 -22.0630
    -7.7381  -7.3822  -7.0536  -6.8224  -6.2605  -5.3657  -4.9542  -4.8041
    -4.7327  -3.9889   0.4524   0.8827   0.9681   1.2614   1.2648   1.4448
     1.8101   1.8764   2.0058   2.5343   2.5821   3.2251   3.2802   3.6575
     3.6882   3.7290   3.7790   3.8644   3.8871   4.1968   4.2635   4.2858
     4.3880   4.6004   5.8736   6.0072   6.2834   6.5876   6.6344   6.7671
     6.9948   7.0959

          k =-0.2541-0.1934 0.1485 ( 36427 PWs)   bands (ev):

   -44.1337 -44.1337 -22.2583 -22.2583 -22.1767 -22.1767 -22.0631 -22.0630
    -7.7043  -7.4716  -6.9804  -6.8378  -6.1785  -5.6132  -4.8320  -4.7483
    -4.6594  -4.0800   0.5042   0.9344   0.9586   1.0356   1.2196   1.4491
     1.7828   2.0889   2.2722   2.5312   2.5623   2.9342   3.3611   3.3938
     3.5734   3.6684   3.7898   3.8992   3.9840   4.1300   4.2832   4.2939
     4.6753   4.8520   5.8316   5.9532   6.1639   6.3319   6.4838   6.7417
     7.1837   7.2870

          k =-0.2541-0.1934-0.2971 ( 36422 PWs)   bands (ev):

   -44.1337 -44.1337 -22.2583 -22.2583 -22.1767 -22.1767 -22.0631 -22.0631
    -7.6082  -7.6082  -6.8884  -6.8884  -5.9441  -5.9441  -4.7855  -4.7855
    -4.3282  -4.3282   0.6734   0.6734   1.0862   1.0862   1.1808   1.1808
     2.1206   2.1206   2.4700   2.4700   2.6694   2.6694   3.2078   3.2078
     3.6116   3.6116   3.8215   3.8215   4.0890   4.0890   4.2969   4.2969
     5.0417   5.0417   5.7421   5.7421   6.1542   6.1542   6.5194   6.5194
     7.3892   7.3892

          k = 0.0000-0.1290 0.0000 ( 36417 PWs)   bands (ev):

   -44.1341 -44.1341 -22.2603 -22.2602 -22.1669 -22.1669 -22.0643 -22.0642
    -7.8595  -7.4957  -7.1262  -6.8669  -6.3174  -5.4105  -4.9343  -4.8453
    -4.7799  -3.8350   0.3598   0.7539   0.8108   1.1289   1.4633   1.5583
     2.2653   2.3359   2.5598   2.7453   2.9461   3.0154   3.2884   3.3976
     3.6479   3.7843   3.8540   4.0131   4.2474   4.2828   4.3110   4.6752
     4.8388   5.4571   5.6591   5.8407   5.8628   5.9946   6.2036   6.8236
     6.9877   7.2369

          k = 0.0000-0.1290 0.1485 ( 36419 PWs)   bands (ev):

   -44.1341 -44.1341 -22.2603 -22.2602 -22.1669 -22.1669 -22.0643 -22.0642
    -7.8250  -7.5866  -7.0459  -6.8841  -6.2387  -5.6664  -4.8500  -4.7922
    -4.6423  -3.9501   0.4248   0.8466   0.9105   1.0120   1.0988   1.9201
     2.0780   2.2926   2.4817   2.8096   2.9321   3.1246   3.3685   3.4212
     3.6961   3.8437   3.8485   3.9926   4.1824   4.3048   4.3311   4.6770
     4.7675   4.9792   5.8197   5.9657   5.9936   6.0326   6.5294   6.6301
     6.8100   7.1760

          k = 0.0000-0.1290-0.2971 ( 36464 PWs)   bands (ev):

   -44.1341 -44.1341 -22.2603 -22.2603 -22.1669 -22.1669 -22.0642 -22.0642
    -7.7265  -7.7265  -6.9414  -6.9414  -6.0059  -6.0059  -4.8201  -4.8201
    -4.2519  -4.2519   0.6426   0.6426   0.9491   0.9491   1.3666   1.3666
     2.3702   2.3702   2.6502   2.6502   2.8873   2.8873   3.4882   3.4882
     3.8371   3.8371   4.0128   4.0128   4.2515   4.2515   4.4064   4.4064
     4.6962   4.6962   5.9476   5.9476   6.2396   6.2396   6.4266   6.4266
     6.9839   6.9839

          k = 1.0162 0.0000 0.0000 ( 36499 PWs)   bands (ev):

   -44.1315 -44.1315 -22.2467 -22.2467 -22.2332 -22.2332 -22.0563 -22.0563
    -6.7146  -6.6944  -5.9975  -5.9874  -5.9453  -5.9379  -5.3319  -5.3313
    -4.5032  -4.4777  -0.0317   0.0112   0.2927   0.3288   1.0020   1.0335
     1.4811   1.6501   2.2309   2.3897   2.3925   2.4138   2.7921   2.8063
     2.8073   2.8942   3.2521   3.2545   3.2573   3.3842   3.5941   3.6489
     3.7593   4.1092   6.5404   6.5632   6.6004   6.6635   7.0765   7.1205
     7.1283   7.1364

          k = 1.0162 0.0000 0.1485 ( 36485 PWs)   bands (ev):

   -44.1315 -44.1315 -22.2467 -22.2467 -22.2332 -22.2332 -22.0563 -22.0563
    -6.7107  -6.6964  -6.0191  -6.0116  -5.9223  -5.9175  -5.3289  -5.3283
    -4.5028  -4.4848  -0.1228  -0.1088   0.5226   0.5236   1.0150   1.0228
     1.4756   1.5836   2.0283   2.0484   2.3792   2.3825   2.6465   2.7676
     2.9711   3.0642   3.0697   3.1753   3.5166   3.6210   3.6605   3.7321
     3.9917   4.1801   6.0200   6.0666   6.4844   6.5715   7.1211   7.1274
     7.3538   7.3595

          k = 1.0162 0.0000-0.2971 ( 36514 PWs)   bands (ev):

   -44.1315 -44.1315 -22.2467 -22.2467 -22.2332 -22.2332 -22.0563 -22.0563
    -6.7026  -6.7026  -6.0308  -6.0308  -5.9058  -5.9058  -5.3256  -5.3256
    -4.4972  -4.4972  -0.1791  -0.1791   0.7725   0.7725   0.9529   0.9529
     1.5290   1.5290   1.7653   1.7653   2.3563   2.3563   2.7422   2.7422
     2.9890   2.9890   3.1146   3.1146   3.6403   3.6403   3.7980   3.7980
     4.3722   4.3722   5.5932   5.5932   6.4422   6.4422   7.1447   7.1447
     7.4379   7.4379

          k = 1.2703 0.0645 0.0000 ( 36468 PWs)   bands (ev):

   -44.1319 -44.1319 -22.2488 -22.2488 -22.2234 -22.2234 -22.0575 -22.0574
    -6.9159  -6.7466  -6.5429  -6.5076  -5.7805  -5.3991  -5.2111  -5.1115
    -4.5717  -4.5105   0.0080   0.0253   0.4642   0.9595   1.0603   1.2416
     1.5081   1.7129   2.0437   2.0917   2.2904   2.3997   2.4337   2.8538
     2.9092   3.1611   3.3505   3.4933   3.5179   3.5751   3.6579   3.7506
     3.9600   4.4568   5.9203   6.3139   6.4581   6.7026   6.9321   7.0686
     7.2407   7.5958

          k = 1.2703 0.0645 0.1485 ( 36490 PWs)   bands (ev):

   -44.1319 -44.1319 -22.2488 -22.2488 -22.2234 -22.2234 -22.0575 -22.0574
    -6.8946  -6.7753  -6.5410  -6.5147  -5.7212  -5.4541  -5.1962  -5.1257
    -4.5595  -4.5172  -0.0016   0.2107   0.3513   0.8934   0.9939   1.1965
     1.5491   1.6356   1.8784   2.2361   2.2740   2.5945   2.6774   2.8779
     2.9202   3.1305   3.1676   3.3540   3.4555   3.5566   3.7591   3.8247
     3.9485   4.5331   5.6310   6.4124   6.5970   6.7464   6.8728   7.0720
     7.1272   7.5108

          k = 1.2703 0.0645-0.2971 ( 36480 PWs)   bands (ev):

   -44.1319 -44.1319 -22.2488 -22.2488 -22.2234 -22.2234 -22.0575 -22.0575
    -6.8389  -6.8389  -6.5300  -6.5300  -5.5857  -5.5857  -5.1605  -5.1605
    -4.5357  -4.5357   0.1338   0.1338   0.5642   0.5642   1.0403   1.0403
     1.5813   1.5813   2.0992   2.0992   2.4839   2.4839   2.8197   2.8197
     3.0246   3.0246   3.1726   3.1726   3.5901   3.5901   3.8743   3.8743
     4.0812   4.0812   6.0986   6.0986   6.4470   6.4470   7.0804   7.0804
     7.3447   7.3448

          k =-0.5081-0.3869 0.0000 ( 36463 PWs)   bands (ev):

   -44.1328 -44.1328 -22.2536 -22.2536 -22.2001 -22.2001 -22.0603 -22.0602
    -7.3858  -7.0513  -6.8894  -6.7086  -6.0766  -5.2614  -5.0727  -4.6983
    -4.6168  -4.4480   0.3784   0.6059   0.6467   1.2245   1.3343   1.5551
     1.6552   1.7193   2.0384   2.0694   2.1872   2.3072   2.4234   3.2760
     3.4223   3.4655   3.4889   3.6319   3.6984   3.7449   3.8658   4.0979
     4.3963   5.0722   5.5664   5.9184   6.1838   6.7805   6.7970   6.8525
     7.3241   7.5155

          k =-0.5081-0.3869 0.1485 ( 36477 PWs)   bands (ev):

   -44.1328 -44.1328 -22.2536 -22.2536 -22.2001 -22.2001 -22.0603 -22.0602
    -7.3549  -7.1411  -6.8273  -6.7216  -5.9914  -5.4820  -4.9103  -4.6598
    -4.6499  -4.4684   0.3982   0.6560   0.7476   0.9898   1.3005   1.3834
     1.6034   1.6930   2.0055   2.0656   2.3336   2.5590   2.8239   3.2281
     3.4191   3.4538   3.4941   3.5708   3.6097   3.7270   3.8196   4.1148
     4.2208   4.5307   6.0783   6.2051   6.2632   6.6637   6.7998   6.8809
     7.1563   7.4867

          k =-0.5081-0.3869-0.2971 ( 36492 PWs)   bands (ev):

   -44.1328 -44.1328 -22.2536 -22.2536 -22.2001 -22.2001 -22.0603 -22.0603
    -7.2669  -7.2669  -6.7604  -6.7604  -5.7694  -5.7694  -4.7613  -4.7613
    -4.5442  -4.5442   0.5237   0.5237   1.0199   1.0199   1.0686   1.0686
     1.6232   1.6232   2.0272   2.0272   2.7687   2.7687   3.1441   3.1441
     3.3604   3.3604   3.4524   3.4524   3.6834   3.6834   3.8275   3.8275
     4.2173   4.2173   6.3126   6.3126   6.6751   6.6751   6.7859   6.7859
     7.1685   7.1685

          k =-0.2541-0.3224 0.0000 ( 36485 PWs)   bands (ev):

   -44.1337 -44.1337 -22.2583 -22.2583 -22.1767 -22.1767 -22.0631 -22.0630
    -7.7283  -7.3805  -7.0460  -6.8308  -6.2796  -5.3679  -4.9663  -4.8082
    -4.7221  -3.9902   0.4782   0.8944   1.0888   1.2538   1.3134   1.5161
     1.8461   1.9132   2.0065   2.4612   2.5383   3.2414   3.3318   3.4892
     3.6030   3.6484   3.7477   3.8181   3.9263   4.1464   4.1483   4.2528
     4.3376   4.6059   5.9607   6.0342   6.3442   6.5844   6.7070   6.7891
     6.9206   7.0259

          k =-0.2541-0.3224 0.1485 ( 36445 PWs)   bands (ev):

   -44.1337 -44.1337 -22.2583 -22.2583 -22.1767 -22.1767 -22.0631 -22.0630
    -7.6949  -7.4662  -6.9797  -6.8462  -6.1932  -5.6161  -4.8525  -4.7429
    -4.6515  -4.0800   0.5269   0.9442   0.9788   1.1650   1.2934   1.4726
     1.7995   2.0924   2.3145   2.4647   2.5257   2.9214   3.3848   3.4359
     3.4859   3.5439   3.6680   3.8904   3.9147   4.0818   4.1977   4.2537
     4.6988   4.8301   5.8197   5.9861   6.1611   6.3655   6.5813   6.7445
     7.1430   7.2693

          k =-0.2541-0.3224-0.2971 ( 36442 PWs)   bands (ev):

   -44.1337 -44.1337 -22.2583 -22.2583 -22.1767 -22.1767 -22.0631 -22.0631
    -7.5999  -7.5999  -6.8947  -6.8947  -5.9513  -5.9513  -4.7923  -4.7923
    -4.3250  -4.3250   0.6896   0.6896   1.1680   1.1680   1.2262   1.2262
     2.1263   2.1263   2.4428   2.4428   2.6642   2.6642   3.2359   3.2359
     3.4652   3.4652   3.7959   3.7959   4.0419   4.0419   4.2335   4.2335
     5.0572   5.0572   5.7014   5.7014   6.1425   6.1425   6.6161   6.6161
     7.3673   7.3674

          k = 0.0000-0.2579 0.0000 ( 36445 PWs)   bands (ev):

   -44.1341 -44.1341 -22.2603 -22.2602 -22.1669 -22.1669 -22.0643 -22.0642
    -7.8508  -7.4942  -7.1168  -6.8750  -6.3379  -5.4139  -4.9480  -4.8499
    -4.7671  -3.8363   0.3969   0.7651   0.9219   1.1772   1.4892   1.6198
     2.2675   2.3375   2.5576   2.7631   2.9474   3.0367   3.3183   3.3927
     3.4400   3.6491   3.7573   3.9590   4.1544   4.1755   4.2476   4.6744
     4.8125   5.4094   5.7166   5.8590   5.9144   6.0701   6.2918   6.7857
     6.9880   7.1751

          k = 0.0000-0.2579 0.1485 ( 36452 PWs)   bands (ev):

   -44.1341 -44.1341 -22.2603 -22.2602 -22.1669 -22.1669 -22.0643 -22.0642
    -7.8165  -7.5818  -7.0428  -6.8916  -6.2551  -5.6704  -4.8699  -4.7855
    -4.6362  -3.9503   0.4583   0.9258   0.9532   1.0602   1.1471   1.9356
     2.1180   2.2948   2.4830   2.8219   2.9349   3.1251   3.3032   3.3844
     3.6308   3.6585   3.8237   3.9122   4.1756   4.1802   4.2103   4.6758
     4.7517   4.9694   5.8558   6.0115   6.0453   6.0483   6.5649   6.6085
     6.8122   7.1340

          k = 0.0000-0.2579-0.2971 ( 36454 PWs)   bands (ev):

   -44.1341 -44.1341 -22.2603 -22.2603 -22.1669 -22.1669 -22.0642 -22.0642
    -7.7191  -7.7191  -6.9459  -6.9459  -6.0146  -6.0146  -4.8258  -4.8258
    -4.2497  -4.2497   0.6763   0.6763   1.0346   1.0346   1.3844   1.3844
     2.3726   2.3726   2.6749   2.6749   2.8941   2.8941   3.3662   3.3662
     3.7744   3.7744   3.9948   3.9948   4.1167   4.1167   4.3879   4.3879
     4.6916   4.6916   5.9606   5.9606   6.2750   6.2750   6.4330   6.4330
     6.9655   6.9655

          k = 1.5243 0.0000 0.0000 ( 36439 PWs)   bands (ev):

   -44.1328 -44.1328 -22.2536 -22.2536 -22.2001 -22.2001 -22.0603 -22.0602
    -7.3815  -7.0506  -6.8895  -6.7118  -6.0804  -5.2612  -5.0756  -4.6999
    -4.6140  -4.4485   0.3734   0.6195   0.6330   1.2287   1.3629   1.5995
     1.6769   1.6850   2.0554   2.0692   2.2354   2.2683   2.4198   3.2317
     3.4164   3.4352   3.4978   3.6981   3.7202   3.7246   3.7469   4.1167
     4.3905   5.0727   5.5630   5.8801   6.2139   6.7443   6.8501   6.9080
     7.2786   7.5487

          k = 1.5243 0.0000 0.1485 ( 36476 PWs)   bands (ev):

   -44.1328 -44.1328 -22.2536 -22.2536 -22.2001 -22.2001 -22.0603 -22.0602
    -7.3507  -7.1387  -6.8296  -6.7251  -5.9940  -5.4821  -4.9144  -4.6590
    -4.6498  -4.4674   0.3962   0.6612   0.7431   0.9873   1.3114   1.3871
     1.6545   1.7180   2.0086   2.0475   2.3415   2.5613   2.8290   3.1861
     3.3802   3.4599   3.4771   3.5972   3.6354   3.7195   3.7686   4.1520
     4.1604   4.5351   6.0524   6.2181   6.2579   6.6339   6.8413   6.9490
     7.1091   7.5004

          k = 1.5243 0.0000-0.2971 ( 36508 PWs)   bands (ev):

   -44.1328 -44.1328 -22.2536 -22.2536 -22.2001 -22.2001 -22.0603 -22.0603
    -7.2632  -7.2632  -6.7641  -6.7641  -5.7702  -5.7702  -4.7648  -4.7648
    -4.5418  -4.5418   0.5258   0.5258   1.0180   1.0180   1.0649   1.0649
     1.6779   1.6779   2.0107   2.0107   2.7887   2.7887   3.1070   3.1070
     3.3598   3.3598   3.4449   3.4449   3.6818   3.6818   3.8224   3.8224
     4.1998   4.1998   6.2986   6.2986   6.6717   6.6717   6.7964   6.7964
     7.1842   7.1843

          k =-0.2541-0.4514 0.0000 ( 36444 PWs)   bands (ev):

   -44.1337 -44.1337 -22.2583 -22.2583 -22.1767 -22.1767 -22.0631 -22.0630
    -7.7211  -7.3794  -7.0414  -6.8359  -6.2936  -5.3694  -4.9752  -4.8085
    -4.7170  -3.9912   0.4889   0.9037   1.2083   1.2468   1.3323   1.6014
     1.8731   1.9517   2.0030   2.3808   2.4643   3.2191   3.3483   3.4185
     3.5012   3.6853   3.7691   3.8037   3.8491   4.1038   4.1176   4.1940
     4.3303   4.6093   6.0331   6.0475   6.3718   6.5812   6.7638   6.7987
     6.8335   7.0041

          k =-0.2541-0.4514 0.1485 ( 36461 PWs)   bands (ev):

   -44.1337 -44.1337 -22.2583 -22.2583 -22.1767 -22.1767 -22.0631 -22.0630
    -7.6880  -7.4624  -6.9797  -6.8515  -6.2038  -5.6180  -4.8652  -4.7403
    -4.6466  -4.0800   0.5358   0.9573   0.9830   1.2949   1.3472   1.4992
     1.8240   2.0936   2.3568   2.3894   2.4487   2.9239   3.3190   3.3508
     3.4542   3.5592   3.7275   3.8456   3.8805   3.9653   4.1892   4.2218
     4.7426   4.7918   5.8132   6.0104   6.1675   6.3520   6.6486   6.7412
     7.1282   7.2549

          k =-0.2541-0.4514-0.2971 ( 36490 PWs)   bands (ev):

   -44.1337 -44.1337 -22.2583 -22.2583 -22.1767 -22.1767 -22.0631 -22.0631
    -7.5939  -7.5939  -6.8993  -6.8993  -5.9562  -5.9562  -4.7970  -4.7970
    -4.3228  -4.3228   0.6955   0.6955   1.1848   1.1848   1.3277   1.3277
     2.1345   2.1345   2.3909   2.3909   2.6621   2.6621   3.2387   3.2387
     3.3597   3.3597   3.8257   3.8257   3.9820   3.9820   4.2026   4.2026
     5.0689   5.0689   5.6767   5.6767   6.1249   6.1249   6.6749   6.6749
     7.3550   7.3550

          k = 0.0000-0.3869 0.0000 ( 36477 PWs)   bands (ev):

   -44.1341 -44.1341 -22.2603 -22.2602 -22.1669 -22.1669 -22.0643 -22.0642
    -7.8418  -7.4928  -7.1080  -6.8817  -6.3593  -5.4171  -4.9627  -4.8483
    -4.7596  -3.8377   0.4200   0.7771   1.0735   1.2391   1.5136   1.6894
     2.2696   2.3412   2.5555   2.7822   2.9482   3.0730   3.1160   3.1536
     3.5445   3.5972   3.7297   3.9487   3.9886   4.0217   4.2477   4.6738
     4.7867   5.3822   5.7759   5.8775   5.9777   6.1165   6.3510   6.7029
     6.9881   7.1441

          k = 0.0000-0.3869 0.1485 ( 36452 PWs)   bands (ev):

   -44.1341 -44.1341 -22.2603 -22.2603 -22.1669 -22.1669 -22.0643 -22.0642
    -7.8079  -7.5770  -7.0405  -6.8984  -6.2718  -5.6743  -4.8866  -4.7813
    -4.6308  -3.9505   0.4766   0.9544   1.0225   1.1640   1.2280   1.9541
     2.1580   2.2971   2.4842   2.8354   2.9373   3.0187   3.1056   3.3304
     3.5576   3.6932   3.7984   3.9142   4.0436   4.0664   4.1684   4.6749
     4.7362   4.9665   5.9017   6.0491   6.0583   6.0724   6.5551   6.5920
     6.8144   7.1013

          k = 0.0000-0.3869-0.2971 ( 36454 PWs)   bands (ev):

   -44.1341 -44.1341 -22.2603 -22.2603 -22.1669 -22.1669 -22.0642 -22.0642
    -7.7116  -7.7116  -6.9506  -6.9506  -6.0232  -6.0232  -4.8316  -4.8316
    -4.2474  -4.2474   0.6914   0.6914   1.1651   1.1651   1.4032   1.4032
     2.3749   2.3749   2.6847   2.6847   2.9013   2.9013   3.1520   3.1520
     3.8094   3.8094   3.9762   3.9762   3.9980   3.9980   4.3662   4.3662
     4.6874   4.6874   5.9565   5.9565   6.3030   6.3030   6.4396   6.4396
     6.9366   6.9366

          k =-2.0325 0.0000 0.0000 ( 36452 PWs)   bands (ev):

   -44.1341 -44.1341 -22.2603 -22.2602 -22.1669 -22.1669 -22.0643 -22.0642
    -7.8380  -7.4921  -7.1047  -6.8840  -6.3684  -5.4184  -4.9688  -4.8466
    -4.7575  -3.8383   0.4256   0.7823   1.1935   1.2210   1.5232   1.7320
     2.2705   2.3437   2.5546   2.7906   2.9482   2.9873   3.0385   3.0936
     3.6016   3.6725   3.7181   3.8458   3.9460   3.9634   4.2477   4.6736
     4.7761   5.3740   5.8003   5.8852   6.0113   6.1308   6.3695   6.6539
     6.9882   7.1383

          k =-2.0325 0.0000 0.1485 ( 36456 PWs)   bands (ev):

   -44.1341 -44.1341 -22.2603 -22.2603 -22.1669 -22.1669 -22.0643 -22.0642
    -7.8042  -7.5750  -7.0398  -6.9009  -6.2789  -5.6758  -4.8930  -4.7799
    -4.6287  -3.9505   0.4802   0.9639   1.0428   1.2278   1.2764   1.9625
     2.1769   2.2980   2.4847   2.8414   2.9250   2.9382   2.9872   3.3494
     3.5366   3.7637   3.7878   3.9165   3.9539   4.0061   4.1652   4.6746
     4.7299   4.9664   5.9256   6.0638   6.0646   6.0735   6.5300   6.5950
     6.8154   7.0911

          k =-2.0325 0.0000-0.2971 ( 36460 PWs)   bands (ev):

   -44.1341 -44.1341 -22.2603 -22.2603 -22.1669 -22.1669 -22.0642 -22.0642
    -7.7084  -7.7084  -6.9527  -6.9527  -6.0267  -6.0267  -4.8340  -4.8340
    -4.2465  -4.2465   0.6938   0.6938   1.2350   1.2350   1.4112   1.4112
     2.3759   2.3759   2.6725   2.6725   2.9044   2.9044   3.0618   3.0618
     3.8547   3.8547   3.9293   3.9293   3.9684   3.9684   4.3583   4.3583
     4.6858   4.6858   5.9515   5.9515   6.3124   6.3124   6.4425   6.4425
     6.9234   6.9234

     the Fermi energy is     5.5437 ev

!    total energy              =   -4240.95407255 Ry

     total all-electron energy =   -150287.647767 Ry
     estimated scf accuracy    <          4.8E-12 Ry
     smearing contrib. (-TS)   =       0.00003133 Ry
     internal energy E=F+TS    =   -4240.95410388 Ry

     The total energy is F=E-TS. E is the sum of the following terms:
     one-electron contribution =    -166.90111109 Ry
     hartree contribution      =     116.92875652 Ry
     xc contribution           =    -201.50065742 Ry
     ewald contribution        =    -221.96099973 Ry
     one-center paw contrib.   =   -3767.52009216 Ry

     convergence has been achieved in  18 iterations

     Forces acting on atoms (cartesian axes, Ry/au):

     atom    1 type  1   force =     0.00000000   -0.00033819    0.00000000
     atom    2 type  1   force =     0.00000000    0.00033819    0.00000000
     atom    3 type  2   force =    -0.00000000    0.00009351    0.00000000
     atom    4 type  2   force =     0.00000000   -0.00009351    0.00000000
     atom    5 type  2   force =     0.00000000    0.00007125    0.00017176
     atom    6 type  2   force =     0.00000000   -0.00007125   -0.00017176
     atom    7 type  2   force =     0.00000000    0.00007125   -0.00017176
     atom    8 type  2   force =     0.00000000   -0.00007125    0.00017176
     atom    9 type  2   force =     0.00000000    0.00038683    0.00035839
     atom   10 type  2   force =     0.00000000   -0.00038683   -0.00035839
     atom   11 type  2   force =    -0.00000000    0.00038683   -0.00035839
     atom   12 type  2   force =    -0.00000000   -0.00038683    0.00035839

     Total force =     0.001223     Total SCF correction =     0.000003


     Computing stress (Cartesian axis) and pressure

          total   stress  (Ry/bohr**3)                   (kbar)     P=       -0.09
   0.00000022   0.00000000   0.00000000            0.03        0.00        0.00
   0.00000000  -0.00000058   0.00000000            0.00       -0.08        0.00
   0.00000000   0.00000000  -0.00000156            0.00        0.00       -0.23

 
     init_run     :     32.79s CPU     33.56s WALL (       1 calls)
     electrons    :   1696.83s CPU   1715.32s WALL (       1 calls)
     forces       :      6.73s CPU      7.00s WALL (       1 calls)
     stress       :     40.09s CPU     40.72s WALL (       1 calls)

     Called by init_run:
     wfcinit      :     28.79s CPU     29.06s WALL (       1 calls)
     potinit      :      1.29s CPU      1.34s WALL (       1 calls)
     hinit0       :      1.68s CPU      1.95s WALL (       1 calls)

     Called by electrons:
     c_bands      :   1350.79s CPU   1358.60s WALL (      19 calls)
     sum_band     :    311.41s CPU    317.78s WALL (      19 calls)
     v_of_rho     :      8.56s CPU      9.16s WALL (      19 calls)
     newd         :     17.98s CPU     21.78s WALL (      19 calls)
     PAW_pot      :      6.70s CPU      6.71s WALL (      19 calls)
     mix_rho      :      1.68s CPU      1.73s WALL (      19 calls)

     Called by c_bands:
     init_us_2    :     14.34s CPU     14.41s WALL (    2583 calls)
     cegterg      :   1270.89s CPU   1277.91s WALL (    1197 calls)

     Called by *egterg:
     cdiaghg      :     27.53s CPU     27.65s WALL (    7990 calls)
     h_psi        :   1094.85s CPU   1101.58s WALL (    8116 calls)
     s_psi        :     50.22s CPU     50.29s WALL (    8116 calls)
     g_psi        :      2.16s CPU      2.17s WALL (    6856 calls)

     Called by h_psi:
     h_psi:calbec :     42.65s CPU     42.74s WALL (    8116 calls)
     vloc_psi     :    998.35s CPU   1004.81s WALL (    8116 calls)
     add_vuspsi   :     49.96s CPU     50.04s WALL (    8116 calls)

     General routines
     calbec       :     56.90s CPU     57.03s WALL (    9628 calls)
     fft          :      7.68s CPU      8.13s WALL (     271 calls)
     ffts         :      0.19s CPU      0.19s WALL (      38 calls)
     fftw         :   1020.54s CPU   1026.95s WALL (  422696 calls)
     interpolate  :      0.64s CPU      0.64s WALL (      19 calls)
 
     Parallel routines
     fft_scatt_xy :    268.89s CPU    270.68s WALL (  423005 calls)
     fft_scatt_yz :    210.63s CPU    212.36s WALL (  423005 calls)
 
     PWSCF        :  29m36.68s CPU  29m57.42s WALL

 
   This run was terminated on:  15:15:50  19Nov2021            

=------------------------------------------------------------------------------=
   JOB DONE.
=------------------------------------------------------------------------------=
