
     Program PWSCF v.6.7MaX starts on 19Nov2021 at 14:46:17 

     This program is part of the open-source Quantum ESPRESSO suite
     for quantum simulation of materials; please cite
         "P. Giannozzi et al., J. Phys.:Condens. Matter 21 395502 (2009);
         "P. Giannozzi et al., J. Phys.:Condens. Matter 29 465901 (2017);
          URL http://www.quantum-espresso.org", 
     in publications or presentations arising from this work. More details at
     http://www.quantum-espresso.org/quote

     Parallel version (MPI), running on    10 processors

     MPI processes distributed on     1 nodes
     R & G space division:  proc/nbgrp/npool/nimage =      10
     Waiting for input...
     Reading input from standard input

     Current dimensions of program PWSCF are:
     Max number of different atomic species (ntypx) = 10
     Max number of k-points (npk) =  40000
     Max angular momentum in pseudopotentials (lmaxx) =  3
     file Zr.pbe-spn-kjpaw_psl.1.0.0.UPF: wavefunction(s)  4S 4P renormalized
     file Te.pbe-n-kjpaw_psl.1.0.0.UPF: wavefunction(s)  5S 5P renormalized

     Subspace diagonalization in iterative solution of the eigenvalue problem:
     a serial algorithm will be used

     Message from routine setup:
     using ibrav=0 with symmetry is DISCOURAGED, use correct ibrav instead
 
     Parallelization info
     --------------------
     sticks:   dense  smooth     PW     G-vecs:    dense   smooth      PW
     Min         734     293     87               115340    29174    4753
     Max         735     295     88               115345    29176    4760
     Sum        7345    2937    873              1153415   291749   47557
 


     bravais-lattice index     =            0
     lattice parameter (alat)  =      15.5510  a.u.
     unit-cell volume          =    3018.5011 (a.u.)^3
     number of atoms/cell      =           12
     number of atomic types    =            2
     number of electrons       =        84.00
     number of Kohn-Sham states=           50
     kinetic-energy cutoff     =      80.0000  Ry
     charge density cutoff     =     800.0000  Ry
     scf convergence threshold =      1.0E-10
     mixing beta               =       0.7000
     number of iterations used =            8  plain     mixing
     Exchange-correlation= SLA  PW   PBX  PBC
                           (   1   4   3   4   0   0   0)

     celldm(1)=  15.551040  celldm(2)=   0.000000  celldm(3)=   0.000000
     celldm(4)=   0.000000  celldm(5)=   0.000000  celldm(6)=   0.000000

     crystal axes: (cart. coord. in units of alat)
               a(1) = (   0.246007  -0.969268   0.000000 )  
               a(2) = (   0.246007   0.969268   0.000000 )  
               a(3) = (   0.000000   0.000000   1.683031 )  

     reciprocal axes: (cart. coord. in units 2 pi/alat)
               b(1) = (  2.032465 -0.515853  0.000000 )  
               b(2) = (  2.032465  0.515853  0.000000 )  
               b(3) = (  0.000000  0.000000  0.594166 )  


     PseudoPot. # 1 for Zr read from file:
     pseudo/Zr.pbe-spn-kjpaw_psl.1.0.0.UPF
     MD5 check sum: 02112c41713a0468aff2bb39ef194e36
     Pseudo is Projector augmented-wave + core cor, Zval = 12.0
     Generated using &quot;atomic&quot; code by A. Dal Corso  v.6.2.2
     Shape of augmentation charge: PSQ
     Using radial grid of 1225 points,  6 beta functions with: 
                l(1) =   0
                l(2) =   0
                l(3) =   1
                l(4) =   1
                l(5) =   2
                l(6) =   2
     Q(r) pseudized with 0 coefficients 


     PseudoPot. # 2 for Te read from file:
     pseudo/Te.pbe-n-kjpaw_psl.1.0.0.UPF
     MD5 check sum: 66247bff2bd9dbf220fbb0bf5ab56e9d
     Pseudo is Projector augmented-wave + core cor, Zval =  6.0
     Generated using &quot;atomic&quot; code by A. Dal Corso  v.6.3
     Shape of augmentation charge: PSQ
     Using radial grid of 1245 points,  6 beta functions with: 
                l(1) =   0
                l(2) =   0
                l(3) =   1
                l(4) =   1
                l(5) =   2
                l(6) =   2
     Q(r) pseudized with 0 coefficients 


     atomic species   valence    mass     pseudopotential
        Zr            12.00    91.22000     Zr( 1.00)
        Te             6.00   127.60000     Te( 1.00)

      8 Sym. Ops., with inversion, found ( 4 have fractional translation)



   Cartesian axes

     site n.     atom                  positions (alat units)
         1           Zr  tau(   1) = (   0.0000000   0.6041258   0.4207578  )
         2           Zr  tau(   2) = (   0.2460067   0.3651423   1.2622733  )
         3           Te  tau(   3) = (   0.2460067   0.3342186   0.4207578  )
         4           Te  tau(   4) = (   0.0000000   0.6350495   1.2622733  )
         5           Te  tau(   5) = (   0.2460067   0.8105002   0.2525237  )
         6           Te  tau(   6) = (   0.0000000   0.1587679   1.4305073  )
         7           Te  tau(   7) = (   0.2460067   0.8105002   0.5889918  )
         8           Te  tau(   8) = (   0.0000000   0.1587679   1.0940393  )
         9           Te  tau(   9) = (   0.0000000   0.4174875   0.7333588  )
        10           Te  tau(  10) = (   0.2460067   0.5517806   0.9496723  )
        11           Te  tau(  11) = (   0.0000000   0.4174875   0.1081567  )
        12           Te  tau(  12) = (   0.2460067   0.5517806   1.5748743  )

     number of k points=    63  Methfessel-Paxton smearing, width (Ry)=  0.0030
                       cart. coord. in units 2pi/alat
        k(    1) = (   0.0000000   0.0000000   0.0000000), wk =   0.0078125
        k(    2) = (   0.0000000   0.0000000   0.1485415), wk =   0.0156250
        k(    3) = (   0.0000000   0.0000000  -0.2970830), wk =   0.0078125
        k(    4) = (   0.2540581   0.0644816   0.0000000), wk =   0.0312500
        k(    5) = (   0.2540581   0.0644816   0.1485415), wk =   0.0625000
        k(    6) = (   0.2540581   0.0644816  -0.2970830), wk =   0.0312500
        k(    7) = (   0.5081162   0.1289633   0.0000000), wk =   0.0312500
        k(    8) = (   0.5081162   0.1289633   0.1485415), wk =   0.0625000
        k(    9) = (   0.5081162   0.1289633  -0.2970830), wk =   0.0312500
        k(   10) = (   0.7621743   0.1934449   0.0000000), wk =   0.0312500
        k(   11) = (   0.7621743   0.1934449   0.1485415), wk =   0.0625000
        k(   12) = (   0.7621743   0.1934449  -0.2970830), wk =   0.0312500
        k(   13) = (  -1.0162324  -0.2579266   0.0000000), wk =   0.0156250
        k(   14) = (  -1.0162324  -0.2579266   0.1485415), wk =   0.0312500
        k(   15) = (  -1.0162324  -0.2579266  -0.2970830), wk =   0.0156250
        k(   16) = (   0.5081162   0.0000000   0.0000000), wk =   0.0156250
        k(   17) = (   0.5081162   0.0000000   0.1485415), wk =   0.0312500
        k(   18) = (   0.5081162   0.0000000  -0.2970830), wk =   0.0156250
        k(   19) = (   0.7621743   0.0644816   0.0000000), wk =   0.0312500
        k(   20) = (   0.7621743   0.0644816   0.1485415), wk =   0.0625000
        k(   21) = (   0.7621743   0.0644816  -0.2970830), wk =   0.0312500
        k(   22) = (   1.0162324   0.1289633   0.0000000), wk =   0.0312500
        k(   23) = (   1.0162324   0.1289633   0.1485415), wk =   0.0625000
        k(   24) = (   1.0162324   0.1289633  -0.2970830), wk =   0.0312500
        k(   25) = (  -0.7621743  -0.3224082   0.0000000), wk =   0.0312500
        k(   26) = (  -0.7621743  -0.3224082   0.1485415), wk =   0.0625000
        k(   27) = (  -0.7621743  -0.3224082  -0.2970830), wk =   0.0312500
        k(   28) = (  -0.5081162  -0.2579266   0.0000000), wk =   0.0312500
        k(   29) = (  -0.5081162  -0.2579266   0.1485415), wk =   0.0625000
        k(   30) = (  -0.5081162  -0.2579266  -0.2970830), wk =   0.0312500
        k(   31) = (  -0.2540581  -0.1934449   0.0000000), wk =   0.0312500
        k(   32) = (  -0.2540581  -0.1934449   0.1485415), wk =   0.0625000
        k(   33) = (  -0.2540581  -0.1934449  -0.2970830), wk =   0.0312500
        k(   34) = (   0.0000000  -0.1289633   0.0000000), wk =   0.0156250
        k(   35) = (   0.0000000  -0.1289633   0.1485415), wk =   0.0312500
        k(   36) = (   0.0000000  -0.1289633  -0.2970830), wk =   0.0156250
        k(   37) = (   1.0162324   0.0000000   0.0000000), wk =   0.0156250
        k(   38) = (   1.0162324   0.0000000   0.1485415), wk =   0.0312500
        k(   39) = (   1.0162324   0.0000000  -0.2970830), wk =   0.0156250
        k(   40) = (   1.2702905   0.0644816   0.0000000), wk =   0.0312500
        k(   41) = (   1.2702905   0.0644816   0.1485415), wk =   0.0625000
        k(   42) = (   1.2702905   0.0644816  -0.2970830), wk =   0.0312500
        k(   43) = (  -0.5081162  -0.3868899   0.0000000), wk =   0.0312500
        k(   44) = (  -0.5081162  -0.3868899   0.1485415), wk =   0.0625000
        k(   45) = (  -0.5081162  -0.3868899  -0.2970830), wk =   0.0312500
        k(   46) = (  -0.2540581  -0.3224082   0.0000000), wk =   0.0312500
        k(   47) = (  -0.2540581  -0.3224082   0.1485415), wk =   0.0625000
        k(   48) = (  -0.2540581  -0.3224082  -0.2970830), wk =   0.0312500
        k(   49) = (   0.0000000  -0.2579266   0.0000000), wk =   0.0156250
        k(   50) = (   0.0000000  -0.2579266   0.1485415), wk =   0.0312500
        k(   51) = (   0.0000000  -0.2579266  -0.2970830), wk =   0.0156250
        k(   52) = (   1.5243485   0.0000000   0.0000000), wk =   0.0156250
        k(   53) = (   1.5243485   0.0000000   0.1485415), wk =   0.0312500
        k(   54) = (   1.5243485   0.0000000  -0.2970830), wk =   0.0156250
        k(   55) = (  -0.2540581  -0.4513715   0.0000000), wk =   0.0312500
        k(   56) = (  -0.2540581  -0.4513715   0.1485415), wk =   0.0625000
        k(   57) = (  -0.2540581  -0.4513715  -0.2970830), wk =   0.0312500
        k(   58) = (   0.0000000  -0.3868899   0.0000000), wk =   0.0156250
        k(   59) = (   0.0000000  -0.3868899   0.1485415), wk =   0.0312500
        k(   60) = (   0.0000000  -0.3868899  -0.2970830), wk =   0.0156250
        k(   61) = (  -2.0324647   0.0000000   0.0000000), wk =   0.0078125
        k(   62) = (  -2.0324647   0.0000000   0.1485415), wk =   0.0156250
        k(   63) = (  -2.0324647   0.0000000  -0.2970830), wk =   0.0078125

     Dense  grid:  1153415 G-vectors     FFT dimensions: ( 144, 144, 240)

     Smooth grid:   291749 G-vectors     FFT dimensions: (  90,  90, 150)

     Estimated max dynamical RAM per process >     657.19 MB

     Estimated total dynamical RAM >       6.42 GB

     Initial potential from superposition of free atoms

     starting charge   83.99353, renormalised to   84.00000
     Starting wfcs are   66 randomized atomic wfcs
     Checking if some PAW data can be deallocated... 

     total cpu time spent up to now is       41.8 secs

     Self-consistent Calculation

     iteration #  1     ecut=    80.00 Ry     beta= 0.70
     Davidson diagonalization with overlap
     ethr =  1.00E-02,  avg # of iterations =  2.1

     Threshold (ethr) on eigenvalues was too large:
     Diagonalizing with lowered threshold

     Davidson diagonalization with overlap
     ethr =  4.27E-04,  avg # of iterations =  3.9

     total cpu time spent up to now is      199.2 secs

     total energy              =   -4240.72920048 Ry
     estimated scf accuracy    <       0.43762202 Ry

     iteration #  2     ecut=    80.00 Ry     beta= 0.70
     Davidson diagonalization with overlap
     ethr =  5.21E-04,  avg # of iterations =  7.8

     total cpu time spent up to now is      310.3 secs

     total energy              =   -4240.63617476 Ry
     estimated scf accuracy    <       2.03302070 Ry

     iteration #  3     ecut=    80.00 Ry     beta= 0.70
     Davidson diagonalization with overlap
     ethr =  5.21E-04,  avg # of iterations =  5.4

     total cpu time spent up to now is      403.4 secs

     total energy              =   -4240.93804503 Ry
     estimated scf accuracy    <       0.00904729 Ry

     iteration #  4     ecut=    80.00 Ry     beta= 0.70
     Davidson diagonalization with overlap
     c_bands:  1 eigenvalues not converged
     c_bands:  2 eigenvalues not converged
     c_bands:  1 eigenvalues not converged
     c_bands:  2 eigenvalues not converged
     c_bands:  1 eigenvalues not converged
     c_bands:  2 eigenvalues not converged
     c_bands:  2 eigenvalues not converged
     c_bands:  3 eigenvalues not converged
     c_bands:  1 eigenvalues not converged
     c_bands:  1 eigenvalues not converged
     c_bands:  1 eigenvalues not converged
     c_bands:  1 eigenvalues not converged
     c_bands:  2 eigenvalues not converged
     c_bands:  1 eigenvalues not converged
     c_bands:  4 eigenvalues not converged
     c_bands:  1 eigenvalues not converged
     c_bands:  1 eigenvalues not converged
     c_bands:  1 eigenvalues not converged
     c_bands:  1 eigenvalues not converged
     c_bands:  2 eigenvalues not converged
     c_bands:  1 eigenvalues not converged
     ethr =  1.08E-05,  avg # of iterations = 18.1

     total cpu time spent up to now is      583.3 secs

     total energy              =   -4240.94929670 Ry
     estimated scf accuracy    <       0.05418206 Ry

     iteration #  5     ecut=    80.00 Ry     beta= 0.70
     Davidson diagonalization with overlap
     c_bands:  1 eigenvalues not converged
     ethr =  1.08E-05,  avg # of iterations =  7.4

     total cpu time spent up to now is      677.1 secs

     total energy              =   -4240.95121567 Ry
     estimated scf accuracy    <       0.00966887 Ry

     iteration #  6     ecut=    80.00 Ry     beta= 0.70
     Davidson diagonalization with overlap
     ethr =  1.08E-05,  avg # of iterations =  2.9

     total cpu time spent up to now is      751.8 secs

     total energy              =   -4240.95193134 Ry
     estimated scf accuracy    <       0.00130442 Ry

     iteration #  7     ecut=    80.00 Ry     beta= 0.70
     Davidson diagonalization with overlap
     ethr =  1.55E-06,  avg # of iterations = 11.2

     total cpu time spent up to now is      872.8 secs

     total energy              =   -4240.95255772 Ry
     estimated scf accuracy    <       0.00133620 Ry

     iteration #  8     ecut=    80.00 Ry     beta= 0.70
     Davidson diagonalization with overlap
     ethr =  1.55E-06,  avg # of iterations =  2.2

     total cpu time spent up to now is      942.5 secs

     total energy              =   -4240.95259778 Ry
     estimated scf accuracy    <       0.00019576 Ry

     iteration #  9     ecut=    80.00 Ry     beta= 0.70
     Davidson diagonalization with overlap
     ethr =  2.33E-07,  avg # of iterations =  6.3

     total cpu time spent up to now is     1033.7 secs

     total energy              =   -4240.95266289 Ry
     estimated scf accuracy    <       0.00002711 Ry

     iteration # 10     ecut=    80.00 Ry     beta= 0.70
     Davidson diagonalization with overlap
     ethr =  3.23E-08,  avg # of iterations =  2.7

     total cpu time spent up to now is     1105.9 secs

     total energy              =   -4240.95266514 Ry
     estimated scf accuracy    <       0.00000409 Ry

     iteration # 11     ecut=    80.00 Ry     beta= 0.70
     Davidson diagonalization with overlap
     ethr =  4.86E-09,  avg # of iterations =  6.2

     total cpu time spent up to now is     1200.7 secs

     total energy              =   -4240.95266714 Ry
     estimated scf accuracy    <       0.00000086 Ry

     iteration # 12     ecut=    80.00 Ry     beta= 0.70
     Davidson diagonalization with overlap
     ethr =  1.03E-09,  avg # of iterations =  2.5

     total cpu time spent up to now is     1271.4 secs

     total energy              =   -4240.95266720 Ry
     estimated scf accuracy    <       0.00000011 Ry

     iteration # 13     ecut=    80.00 Ry     beta= 0.70
     Davidson diagonalization with overlap
     ethr =  1.27E-10,  avg # of iterations =  6.4

     total cpu time spent up to now is     1370.4 secs

     total energy              =   -4240.95266726 Ry
     estimated scf accuracy    <       0.00000004 Ry

     iteration # 14     ecut=    80.00 Ry     beta= 0.70
     Davidson diagonalization with overlap
     ethr =  5.28E-11,  avg # of iterations =  1.5

     total cpu time spent up to now is     1436.9 secs

     total energy              =   -4240.95266726 Ry
     estimated scf accuracy    <       0.00000002 Ry

     iteration # 15     ecut=    80.00 Ry     beta= 0.70
     Davidson diagonalization with overlap
     ethr =  2.28E-11,  avg # of iterations =  5.4

     total cpu time spent up to now is     1520.3 secs

     total energy              =   -4240.95266726 Ry
     estimated scf accuracy    <          5.5E-10 Ry

     iteration # 16     ecut=    80.00 Ry     beta= 0.70
     Davidson diagonalization with overlap
     ethr =  6.54E-13,  avg # of iterations =  7.7

     total cpu time spent up to now is     1618.6 secs

     total energy              =   -4240.95266726 Ry
     estimated scf accuracy    <          1.2E-09 Ry

     iteration # 17     ecut=    80.00 Ry     beta= 0.70
     Davidson diagonalization with overlap
     ethr =  6.54E-13,  avg # of iterations =  2.9

     total cpu time spent up to now is     1693.0 secs

     total energy              =   -4240.95266726 Ry
     estimated scf accuracy    <          1.4E-10 Ry

     iteration # 18     ecut=    80.00 Ry     beta= 0.70
     Davidson diagonalization with overlap
     ethr =  1.68E-13,  avg # of iterations =  6.3

     total cpu time spent up to now is     1772.0 secs

     End of self-consistent calculation

          k = 0.0000 0.0000 0.0000 ( 36359 PWs)   bands (ev):

   -44.1367 -44.1366 -22.2589 -22.2589 -22.1672 -22.1672 -22.0687 -22.0685
    -7.9594  -7.6549  -7.1286  -6.8948  -6.2403  -5.4143  -4.8644  -4.8235
    -4.7732  -3.8176   0.3056   0.7566   0.7901   1.1333   1.4043   1.5348
     2.1595   2.3052   2.3836   2.7629   2.9294   3.0057   3.2926   3.3629
     3.7438   3.8438   4.0106   4.0775   4.2828   4.3393   4.3871   4.6936
     4.7918   5.4487   5.6388   5.8569   5.9022   5.9204   6.0741   6.8096
     7.0157   7.2741

          k = 0.0000 0.0000 0.1485 ( 36415 PWs)   bands (ev):

   -44.1367 -44.1366 -22.2589 -22.2589 -22.1672 -22.1672 -22.0686 -22.0686
    -7.9278  -7.7216  -7.0677  -6.9134  -6.1684  -5.6420  -4.8193  -4.7811
    -4.6089  -3.9315   0.3766   0.8231   0.9044   0.9853   1.0904   1.8919
     2.0425   2.1834   2.3360   2.8029   2.9143   3.0973   3.4037   3.4123
     3.7315   3.9015   3.9874   4.0833   4.2163   4.3640   4.4023   4.6924
     4.7441   4.9553   5.8272   5.9207   5.9221   6.0773   6.4386   6.6295
     6.8338   7.1688

          k = 0.0000 0.0000-0.2971 ( 36410 PWs)   bands (ev):

   -44.1366 -44.1366 -22.2589 -22.2589 -22.1672 -22.1672 -22.0686 -22.0686
    -7.8394  -7.8394  -6.9724  -6.9724  -5.9555  -5.9555  -4.8002  -4.8002
    -4.2287  -4.2287   0.5985   0.5985   0.9427   0.9427   1.3486   1.3486
     2.2496   2.2496   2.6145   2.6145   2.8692   2.8692   3.5361   3.5361
     3.9085   3.9085   4.0525   4.0525   4.3392   4.3392   4.3991   4.3991
     4.6999   4.6999   5.9127   5.9127   6.2249   6.2249   6.4538   6.4538
     6.9201   6.9201

          k = 0.2541 0.0645 0.0000 ( 36396 PWs)   bands (ev):

   -44.1363 -44.1363 -22.2570 -22.2570 -22.1769 -22.1769 -22.0675 -22.0674
    -7.8391  -7.5386  -7.0601  -6.8466  -6.1792  -5.3678  -4.8914  -4.7797
    -4.7287  -3.9784   0.3904   0.8783   0.9173   1.1716   1.2481   1.4449
     1.6939   1.8251   1.8731   2.5758   2.6014   3.2043   3.2734   3.7222
     3.7572   3.7670   3.8409   3.8449   4.0418   4.2497   4.3101   4.3404
     4.4883   4.5658   5.8548   5.9783   6.1988   6.5640   6.6084   6.6907
     7.0217   7.1936

          k = 0.2541 0.0645 0.1485 ( 36423 PWs)   bands (ev):

   -44.1363 -44.1363 -22.2570 -22.2570 -22.1769 -22.1769 -22.0675 -22.0674
    -7.8080  -7.6049  -7.0035  -6.8634  -6.1061  -5.5890  -4.7901  -4.7385
    -4.6406  -4.0689   0.4497   0.9119   0.9326   0.9631   1.1977   1.3619
     1.7498   1.9485   2.1847   2.5662   2.5853   2.9543   3.3675   3.3768
     3.5447   3.7988   3.9432   3.9768   4.0401   4.1731   4.3561   4.3666
     4.6868   4.8057   5.8575   5.9598   6.1544   6.2549   6.3851   6.7604
     7.2168   7.2830

          k = 0.2541 0.0645-0.2971 ( 36436 PWs)   bands (ev):

   -44.1363 -44.1363 -22.2570 -22.2570 -22.1769 -22.1769 -22.0675 -22.0675
    -7.7210  -7.7210  -6.9168  -6.9168  -5.8941  -5.8941  -4.7622  -4.7622
    -4.3140  -4.3140   0.6310   0.6310   1.0330   1.0330   1.1392   1.1392
     2.0016   2.0016   2.4809   2.4809   2.6633   2.6633   3.2184   3.2184
     3.6467   3.6467   3.9634   3.9634   4.1291   4.1291   4.3751   4.3751
     4.9930   4.9930   5.7886   5.7886   6.1473   6.1473   6.4496   6.4496
     7.3916   7.3917

          k = 0.5081 0.1290 0.0000 ( 36499 PWs)   bands (ev):

   -44.1354 -44.1354 -22.2523 -22.2523 -22.2001 -22.2001 -22.0648 -22.0647
    -7.4915  -7.1992  -6.8976  -6.7230  -5.9959  -5.2585  -5.0377  -4.6668
    -4.6190  -4.4557   0.2928   0.5770   0.6480   1.1847   1.2106   1.3337
     1.6376   1.7015   1.9090   2.0983   2.1584   2.2949   2.4727   3.3972
     3.4948   3.5089   3.5783   3.5848   3.7723   3.8615   3.9498   4.1908
     4.3743   4.9933   5.6623   6.0896   6.1650   6.5968   6.6192   6.9820
     7.4513   7.5621

          k = 0.5081 0.1290 0.1485 ( 36476 PWs)   bands (ev):

   -44.1354 -44.1354 -22.2523 -22.2523 -22.2001 -22.2001 -22.0648 -22.0647
    -7.4622  -7.2674  -6.8475  -6.7364  -5.9240  -5.4615  -4.8785  -4.6499
    -4.6346  -4.4808   0.3220   0.5839   0.7572   0.9668   1.2398   1.3217
     1.4147   1.5660   2.0131   2.0950   2.3542   2.4510   2.8197   3.4067
     3.4291   3.4885   3.5170   3.6154   3.7294   3.7587   3.8535   4.2387
     4.3051   4.4898   6.1742   6.2098   6.3618   6.5976   6.6653   6.8479
     7.2937   7.5171

          k = 0.5081 0.1290-0.2971 ( 36466 PWs)   bands (ev):

   -44.1354 -44.1354 -22.2523 -22.2523 -22.2001 -22.2001 -22.0647 -22.0647
    -7.3797  -7.3797  -6.7781  -6.7781  -5.7276  -5.7276  -4.7298  -4.7298
    -4.5550  -4.5550   0.4475   0.4475   1.0053   1.0053   1.0538   1.0538
     1.4340   1.4340   2.0565   2.0565   2.6902   2.6902   3.1719   3.1719
     3.4002   3.4002   3.5617   3.5617   3.7257   3.7257   3.8539   3.8539
     4.3188   4.3188   6.4151   6.4151   6.5643   6.5643   6.8532   6.8532
     7.1701   7.1701

          k = 0.7622 0.1934 0.0000 ( 36521 PWs)   bands (ev):

   -44.1345 -44.1345 -22.2475 -22.2475 -22.2233 -22.2233 -22.0620 -22.0620
    -6.9932  -6.7472  -6.6705  -6.5414  -5.7510  -5.4262  -5.1904  -5.1247
    -4.5416  -4.5048  -0.0450   0.0176   0.4215   0.9772   0.9943   1.2794
     1.4842   1.6024   1.9862   2.1283   2.2376   2.3111   2.4271   2.7974
     2.9235   3.2637   3.3475   3.4737   3.5504   3.6691   3.7229   3.8046
     3.8150   4.5688   5.9835   6.3721   6.4338   6.8753   6.8943   6.9700
     7.3375   7.6307

          k = 0.7622 0.1934 0.1485 ( 36503 PWs)   bands (ev):

   -44.1345 -44.1345 -22.2475 -22.2475 -22.2233 -22.2233 -22.0620 -22.0620
    -6.9694  -6.8129  -6.6256  -6.5510  -5.7017  -5.4721  -5.1831  -5.1354
    -4.5334  -4.5080  -0.0360   0.1770   0.3048   0.8668   0.9820   1.2363
     1.4959   1.6156   1.9496   2.0509   2.1251   2.6101   2.6909   2.8714
     2.9013   3.0682   3.2712   3.3842   3.5227   3.6194   3.6794   3.9325
     3.9768   4.4966   5.7817   6.3783   6.6829   6.7978   6.9699   7.0003
     7.1164   7.6149

          k = 0.7622 0.1934-0.2971 ( 36522 PWs)   bands (ev):

   -44.1345 -44.1345 -22.2475 -22.2475 -22.2233 -22.2233 -22.0620 -22.0620
    -6.9035  -6.9035  -6.5793  -6.5793  -5.5856  -5.5856  -5.1606  -5.1606
    -4.5182  -4.5182   0.0950   0.0950   0.5118   0.5118   1.0826   1.0826
     1.5630   1.5630   2.0122   2.0122   2.3948   2.3948   2.8278   2.8278
     2.9819   2.9819   3.3033   3.3033   3.5975   3.5975   3.9143   3.9143
     4.0730   4.0730   6.2184   6.2184   6.4750   6.4750   7.0121   7.0121
     7.4754   7.4754

          k =-1.0162-0.2579 0.0000 ( 36506 PWs)   bands (ev):

   -44.1341 -44.1341 -22.2454 -22.2454 -22.2330 -22.2330 -22.0609 -22.0609
    -6.7272  -6.7069  -6.0751  -6.0640  -6.0330  -6.0267  -5.2828  -5.2822
    -4.4843  -4.4573  -0.0579  -0.0366   0.2573   0.2790   1.0113   1.0201
     1.4675   1.6663   2.2286   2.3909   2.4044   2.4232   2.8090   2.8181
     2.8206   2.8236   3.1998   3.2554   3.3187   3.3922   3.4686   3.6764
     3.8413   4.1261   6.6050   6.6274   6.6489   6.6803   7.0596   7.1565
     7.1608   7.2016

          k =-1.0162-0.2579 0.1485 ( 36506 PWs)   bands (ev):

   -44.1341 -44.1341 -22.2454 -22.2454 -22.2330 -22.2330 -22.0609 -22.0609
    -6.7231  -6.7087  -6.0994  -6.0916  -6.0073  -6.0027  -5.2803  -5.2800
    -4.4833  -4.4642  -0.1548  -0.1482   0.4685   0.4760   1.0074   1.0217
     1.4625   1.5942   2.0195   2.1293   2.3662   2.3975   2.6836   2.6892
     2.9357   3.0458   3.0865   3.1949   3.5542   3.5687   3.6209   3.7456
     4.0359   4.1720   6.1009   6.1195   6.5189   6.5953   7.1532   7.1699
     7.3645   7.4237

          k =-1.0162-0.2579-0.2971 ( 36528 PWs)   bands (ev):

   -44.1341 -44.1341 -22.2454 -22.2454 -22.2330 -22.2330 -22.0609 -22.0609
    -6.7147  -6.7147  -6.1116  -6.1116  -5.9900  -5.9900  -5.2778  -5.2778
    -4.4767  -4.4767  -0.2145  -0.2145   0.6935   0.6935   0.9616   0.9616
     1.5177   1.5177   1.8229   1.8229   2.3670   2.3670   2.7656   2.7656
     2.8765   2.8765   3.1710   3.1710   3.6363   3.6363   3.8038   3.8038
     4.3370   4.3370   5.6886   5.6886   6.4682   6.4682   7.1807   7.1807
     7.4821   7.4821

          k = 0.5081 0.0000 0.0000 ( 36503 PWs)   bands (ev):

   -44.1354 -44.1354 -22.2523 -22.2523 -22.2001 -22.2001 -22.0648 -22.0647
    -7.4948  -7.1998  -6.8983  -6.7199  -5.9926  -5.2584  -5.0350  -4.6608
    -4.6262  -4.4552   0.2980   0.5769   0.6419   1.1802   1.2303   1.2786
     1.6336   1.6968   1.8953   2.1039   2.1616   2.2741   2.4732   3.3891
     3.5148   3.5445   3.5645   3.5825   3.7807   3.9167   3.9334   4.2283
     4.3764   4.9878   5.6682   6.0663   6.2006   6.5589   6.5674   7.0182
     7.4627   7.5798

          k = 0.5081 0.0000 0.1485 ( 36453 PWs)   bands (ev):

   -44.1354 -44.1354 -22.2523 -22.2523 -22.2001 -22.2001 -22.0648 -22.0647
    -7.4653  -7.2690  -6.8467  -6.7334  -5.9215  -5.4611  -4.8744  -4.6513
    -4.6342  -4.4821   0.3249   0.5780   0.7580   0.9711   1.2554   1.2943
     1.3852   1.5440   2.0111   2.1061   2.3762   2.4056   2.8173   3.4098
     3.4736   3.4783   3.4999   3.6247   3.7196   3.8287   3.8375   4.2823
     4.3139   4.4795   6.1652   6.2199   6.3809   6.5507   6.6280   6.8805
     7.3122   7.5278

          k = 0.5081 0.0000-0.2971 ( 36452 PWs)   bands (ev):

   -44.1354 -44.1354 -22.2523 -22.2523 -22.2001 -22.2001 -22.0647 -22.0647
    -7.3823  -7.3823  -6.7757  -6.7757  -5.7265  -5.7265  -4.7260  -4.7260
    -4.5578  -4.5578   0.4458   0.4458   1.0067   1.0067   1.0600   1.0600
     1.3974   1.3974   2.0594   2.0594   2.6808   2.6808   3.1663   3.1663
     3.4058   3.4058   3.5721   3.5721   3.7549   3.7549   3.8500   3.8500
     4.3383   4.3383   6.4305   6.4305   6.5281   6.5281   6.8711   6.8711
     7.1709   7.1709

          k = 0.7622 0.0645 0.0000 ( 36505 PWs)   bands (ev):

   -44.1345 -44.1345 -22.2475 -22.2475 -22.2233 -22.2233 -22.0620 -22.0620
    -7.0008  -6.7447  -6.6718  -6.5348  -5.7510  -5.4234  -5.1910  -5.1238
    -4.5316  -4.5157  -0.0354   0.0142   0.4343   0.9833   1.0087   1.2932
     1.4489   1.5651   1.9530   2.1489   2.2625   2.2912   2.3631   2.7727
     2.9125   3.3109   3.3647   3.5224   3.5563   3.6430   3.6983   3.8183
     3.8299   4.5987   5.9808   6.3540   6.4414   6.8665   6.9293   6.9325
     7.3510   7.6530

          k = 0.7622 0.0645 0.1485 ( 36509 PWs)   bands (ev):

   -44.1345 -44.1345 -22.2475 -22.2475 -22.2233 -22.2233 -22.0620 -22.0620
    -6.9766  -6.8154  -6.6218  -6.5443  -5.7021  -5.4709  -5.1825  -5.1345
    -4.5264  -4.5156  -0.0284   0.1749   0.3136   0.8580   1.0080   1.2509
     1.4644   1.6142   1.9753   1.9936   2.0524   2.6194   2.6841   2.8648
     2.8795   3.0722   3.3205   3.3898   3.5599   3.6074   3.6576   3.9652
     3.9875   4.4922   5.8065   6.3563   6.6965   6.7990   6.9625   7.0206
     7.0894   7.6351

          k = 0.7622 0.0645-0.2971 ( 36472 PWs)   bands (ev):

   -44.1345 -44.1345 -22.2475 -22.2475 -22.2233 -22.2233 -22.0620 -22.0620
    -6.9092  -6.9092  -6.5730  -6.5730  -5.5859  -5.5859  -5.1594  -5.1594
    -4.5185  -4.5185   0.1031   0.1031   0.5046   0.5046   1.1042   1.1042
     1.5571   1.5571   1.9602   1.9602   2.3786   2.3786   2.8309   2.8309
     2.9652   2.9652   3.3593   3.3593   3.5946   3.5946   3.9032   3.9032
     4.0858   4.0858   6.2445   6.2445   6.4750   6.4750   6.9807   6.9807
     7.5031   7.5031

          k = 1.0162 0.1290 0.0000 ( 36514 PWs)   bands (ev):

   -44.1341 -44.1341 -22.2454 -22.2454 -22.2330 -22.2330 -22.0609 -22.0609
    -6.7272  -6.7069  -6.0749  -6.0642  -6.0330  -6.0267  -5.2827  -5.2822
    -4.4843  -4.4573  -0.0637  -0.0307   0.2538   0.2827   1.0043   1.0282
     1.4738   1.6567   2.2264   2.3938   2.4023   2.4204   2.7929   2.8063
     2.8184   2.8702   3.2188   3.2352   3.2972   3.3794   3.5157   3.6562
     3.8260   4.1408   6.5996   6.6146   6.6621   6.6877   7.0808   7.1572
     7.1629   7.1856

          k = 1.0162 0.1290 0.1485 ( 36524 PWs)   bands (ev):

   -44.1341 -44.1341 -22.2454 -22.2454 -22.2330 -22.2330 -22.0609 -22.0609
    -6.7231  -6.7086  -6.0993  -6.0917  -6.0073  -6.0028  -5.2804  -5.2799
    -4.4833  -4.4642  -0.1571  -0.1463   0.4698   0.4752   1.0082   1.0211
     1.4682   1.5884   2.0311   2.1122   2.3674   2.3936   2.6478   2.7315
     2.9435   3.0589   3.0796   3.1848   3.5241   3.5948   3.6330   3.7382
     4.0143   4.1914   6.0945   6.1300   6.5156   6.5979   7.1575   7.1694
     7.3735   7.4158

          k = 1.0162 0.1290-0.2971 ( 36516 PWs)   bands (ev):

   -44.1341 -44.1341 -22.2454 -22.2454 -22.2330 -22.2330 -22.0609 -22.0609
    -6.7147  -6.7147  -6.1116  -6.1116  -5.9900  -5.9900  -5.2778  -5.2778
    -4.4767  -4.4767  -0.2147  -0.2147   0.6939   0.6939   0.9615   0.9615
     1.5188   1.5188   1.8237   1.8237   2.3589   2.3589   2.7488   2.7488
     2.9146   2.9146   3.1549   3.1549   3.6388   3.6388   3.8016   3.8016
     4.3375   4.3375   5.6911   5.6911   6.4675   6.4675   7.1819   7.1819
     7.4831   7.4831

          k =-0.7622-0.3224 0.0000 ( 36511 PWs)   bands (ev):

   -44.1345 -44.1345 -22.2475 -22.2475 -22.2233 -22.2233 -22.0620 -22.0620
    -6.9816  -6.7515  -6.6687  -6.5505  -5.7509  -5.4301  -5.1896  -5.1259
    -4.5494  -4.4958  -0.0584   0.0226   0.4035   0.9439   1.0098   1.2625
     1.5039   1.6665   2.0539   2.1036   2.2417   2.3362   2.4536   2.8337
     2.9352   3.2136   3.3332   3.4652   3.5375   3.6339   3.6713   3.7659
     3.9091   4.5176   5.9872   6.3727   6.4602   6.7932   6.9369   7.0363
     7.3078   7.6001

          k =-0.7622-0.3224 0.1485 ( 36492 PWs)   bands (ev):

   -44.1345 -44.1345 -22.2475 -22.2475 -22.2233 -22.2233 -22.0620 -22.0620
    -6.9585  -6.8096  -6.6312  -6.5606  -5.7011  -5.4738  -5.1839  -5.1368
    -4.5388  -4.5016  -0.0467   0.1809   0.2917   0.8756   0.9568   1.2166
     1.5285   1.6231   1.9339   2.1492   2.1997   2.6014   2.6808   2.8897
     2.9165   3.0855   3.2168   3.3651   3.4745   3.5970   3.7250   3.8796
     3.9744   4.5013   5.7488   6.4136   6.6541   6.7942   6.9361   7.0476
     7.1440   7.5731

          k =-0.7622-0.3224-0.2971 ( 36508 PWs)   bands (ev):

   -44.1345 -44.1345 -22.2475 -22.2475 -22.2233 -22.2233 -22.0620 -22.0620
    -6.8950  -6.8950  -6.5887  -6.5887  -5.5850  -5.5850  -5.1623  -5.1623
    -4.5179  -4.5179   0.0838   0.0838   0.5214   0.5214   1.0571   1.0571
     1.5714   1.5714   2.0723   2.0723   2.4348   2.4348   2.8243   2.8243
     3.0066   3.0066   3.2238   3.2238   3.5952   3.5952   3.9059   3.9059
     4.0760   4.0760   6.1848   6.1848   6.4734   6.4734   7.0633   7.0633
     7.4275   7.4275

          k =-0.5081-0.2579 0.0000 ( 36480 PWs)   bands (ev):

   -44.1354 -44.1354 -22.2523 -22.2523 -22.2001 -22.2001 -22.0648 -22.0647
    -7.4834  -7.1979  -6.8965  -6.7299  -6.0042  -5.2587  -5.0443  -4.6756
    -4.6072  -4.4568   0.2805   0.5810   0.6548   1.1953   1.2084   1.4325
     1.6442   1.7225   1.9436   2.0859   2.1516   2.3344   2.4693   3.3952
     3.4170   3.4959   3.5562   3.6198   3.7412   3.7578   3.9763   4.1104
     4.3651   5.0049   5.6504   6.0721   6.1554   6.6940   6.7415   6.8963
     7.4130   7.5221

          k =-0.5081-0.2579 0.1485 ( 36485 PWs)   bands (ev):

   -44.1354 -44.1354 -22.2523 -22.2523 -22.2001 -22.2001 -22.0648 -22.0647
    -7.4544  -7.2634  -6.8500  -6.7433  -5.9302  -5.4623  -4.8882  -4.6467
    -4.6359  -4.4778   0.3152   0.5977   0.7538   0.9566   1.2350   1.3482
     1.5006   1.6281   2.0086   2.0757   2.3440   2.5105   2.8249   3.3277
     3.4347   3.4805   3.5376   3.6019   3.6214   3.7521   3.8661   4.1554
     4.2690   4.5084   6.1657   6.2108   6.3214   6.6981   6.7664   6.7794
     7.2419   7.4946

          k =-0.5081-0.2579-0.2971 ( 36478 PWs)   bands (ev):

   -44.1354 -44.1354 -22.2523 -22.2523 -22.2001 -22.2001 -22.0647 -22.0647
    -7.3732  -7.3732  -6.7843  -6.7843  -5.7303  -5.7303  -4.7386  -4.7386
    -4.5487  -4.5487   0.4515   0.4515   1.0003   1.0003   1.0437   1.0437
     1.5273   1.5273   2.0447   2.0447   2.7179   2.7179   3.1712   3.1712
     3.3825   3.3825   3.5154   3.5154   3.6915   3.6915   3.8603   3.8603
     4.2728   4.2728   6.3797   6.3797   6.6415   6.6415   6.8138   6.8138
     7.1755   7.1755

          k =-0.2541-0.1934 0.0000 ( 36410 PWs)   bands (ev):

   -44.1363 -44.1363 -22.2570 -22.2570 -22.1769 -22.1769 -22.0675 -22.0674
    -7.8336  -7.5376  -7.0551  -6.8513  -6.1916  -5.3702  -4.9008  -4.7865
    -4.7162  -3.9793   0.4151   0.8846   0.9856   1.1671   1.2767   1.4803
     1.7189   1.8475   1.8762   2.5438   2.5918   3.2513   3.2656   3.6734
     3.7105   3.7270   3.8066   3.8642   3.9011   4.1937   4.2927   4.3133
     4.3721   4.6041   5.9109   6.0114   6.2691   6.5682   6.6324   6.7258
     6.9998   7.1130

          k =-0.2541-0.1934 0.1485 ( 36427 PWs)   bands (ev):

   -44.1363 -44.1363 -22.2570 -22.2570 -22.1769 -22.1769 -22.0675 -22.0674
    -7.8027  -7.6023  -7.0017  -6.8677  -6.1163  -5.5920  -4.8077  -4.7314
    -4.6348  -4.0689   0.4732   0.9119   0.9469   1.0420   1.2315   1.3772
     1.7578   1.9519   2.2150   2.5418   2.5749   2.9416   3.3876   3.4192
     3.5550   3.7007   3.8116   3.9023   3.9929   4.1473   4.3113   4.3195
     4.6749   4.8117   5.8505   5.9837   6.1526   6.3262   6.4520   6.7609
     7.1770   7.2725

          k =-0.2541-0.1934-0.2971 ( 36422 PWs)   bands (ev):

   -44.1363 -44.1363 -22.2570 -22.2570 -22.1769 -22.1769 -22.0675 -22.0675
    -7.7166  -7.7166  -6.9192  -6.9192  -5.9000  -5.9000  -4.7665  -4.7665
    -4.3120  -4.3120   0.6502   0.6502   1.0803   1.0803   1.1576   1.1576
     2.0054   2.0054   2.4770   2.4770   2.6635   2.6635   3.2327   3.2327
     3.6394   3.6394   3.8289   3.8289   4.1067   4.1067   4.3222   4.3222
     5.0058   5.0058   5.7545   5.7545   6.1706   6.1706   6.5125   6.5125
     7.3770   7.3770

          k = 0.0000-0.1290 0.0000 ( 36417 PWs)   bands (ev):

   -44.1367 -44.1366 -22.2589 -22.2589 -22.1672 -22.1672 -22.0687 -22.0685
    -7.9565  -7.6543  -7.1251  -6.8973  -6.2482  -5.4162  -4.8717  -4.8279
    -4.7636  -3.8181   0.3234   0.7605   0.8309   1.1434   1.4155   1.5642
     2.1599   2.3045   2.3829   2.7699   2.9312   3.0094   3.3309   3.3565
     3.6991   3.8326   3.8865   4.0126   4.2830   4.2851   4.3394   4.6929
     4.7800   5.4188   5.6603   5.8789   5.9099   5.9702   6.1220   6.8134
     7.0158   7.2315

          k = 0.0000-0.1290 0.1485 ( 36419 PWs)   bands (ev):

   -44.1367 -44.1366 -22.2589 -22.2589 -22.1672 -22.1672 -22.0686 -22.0686
    -7.9250  -7.7203  -7.0660  -6.9155  -6.1751  -5.6442  -4.8292  -4.7762
    -4.6067  -3.9316   0.3940   0.8652   0.9129   0.9904   1.1107   1.8968
     2.0600   2.1837   2.3358   2.8087   2.9167   3.1035   3.3771   3.4468
     3.7234   3.8715   3.8911   3.9956   4.2133   4.3105   4.3569   4.6915
     4.7368   4.9476   5.8402   5.9412   5.9693   6.0828   6.4559   6.6308
     6.8348   7.1457

          k = 0.0000-0.1290-0.2971 ( 36464 PWs)   bands (ev):

   -44.1367 -44.1367 -22.2589 -22.2589 -22.1672 -22.1672 -22.0686 -22.0686
    -7.8371  -7.8371  -6.9733  -6.9733  -5.9595  -5.9595  -4.8023  -4.8023
    -4.2279  -4.2279   0.6181   0.6181   0.9672   0.9672   1.3549   1.3549
     2.2498   2.2498   2.6261   2.6261   2.8731   2.8731   3.5308   3.5308
     3.8478   3.8478   4.0447   4.0447   4.2491   4.2491   4.4047   4.4047
     4.6975   4.6975   5.9340   5.9340   6.2390   6.2390   6.4566   6.4566
     6.9154   6.9154

          k = 1.0162 0.0000 0.0000 ( 36499 PWs)   bands (ev):

   -44.1341 -44.1341 -22.2454 -22.2454 -22.2330 -22.2330 -22.0609 -22.0609
    -6.7272  -6.7069  -6.0747  -6.0644  -6.0330  -6.0267  -5.2827  -5.2822
    -4.4843  -4.4573  -0.0679  -0.0264   0.2510   0.2856   1.0005   1.0330
     1.4810   1.6463   2.2241   2.3978   2.4007   2.4167   2.7868   2.8049
     2.8151   2.8973   3.2308   3.2427   3.2652   3.3614   3.5861   3.6075
     3.8124   4.1542   6.5950   6.6067   6.6703   6.6946   7.1150   7.1567
     7.1580   7.1648

          k = 1.0162 0.0000 0.1485 ( 36485 PWs)   bands (ev):

   -44.1341 -44.1341 -22.2454 -22.2454 -22.2330 -22.2330 -22.0609 -22.0609
    -6.7231  -6.7086  -6.0992  -6.0918  -6.0072  -6.0028  -5.2804  -5.2799
    -4.4833  -4.4642  -0.1587  -0.1449   0.4724   0.4732   1.0093   1.0203
     1.4746   1.5819   2.0508   2.0870   2.3726   2.3858   2.6352   2.7485
     2.9570   3.0696   3.0734   3.1727   3.5104   3.5977   3.6555   3.7271
     3.9965   4.2070   6.0910   6.1376   6.5125   6.6003   7.1638   7.1669
     7.3931   7.3974

          k = 1.0162 0.0000-0.2971 ( 36514 PWs)   bands (ev):

   -44.1341 -44.1341 -22.2454 -22.2454 -22.2330 -22.2330 -22.0609 -22.0609
    -6.7147  -6.7147  -6.1116  -6.1116  -5.9900  -5.9900  -5.2778  -5.2778
    -4.4767  -4.4767  -0.2148  -0.2148   0.6944   0.6944   0.9613   0.9613
     1.5200   1.5200   1.8246   1.8246   2.3510   2.3510   2.7374   2.7374
     2.9510   2.9510   3.1348   3.1348   3.6414   3.6414   3.7994   3.7994
     4.3380   4.3380   5.6936   5.6936   6.4669   6.4669   7.1832   7.1832
     7.4841   7.4841

          k = 1.2703 0.0645 0.0000 ( 36468 PWs)   bands (ev):

   -44.1345 -44.1345 -22.2475 -22.2475 -22.2233 -22.2233 -22.0620 -22.0620
    -6.9727  -6.7554  -6.6675  -6.5569  -5.7508  -5.4329  -5.1890  -5.1268
    -4.5535  -4.4909  -0.0676   0.0263   0.3908   0.9254   1.0207   1.2515
     1.5073   1.7136   2.0881   2.1244   2.2586   2.3533   2.4299   2.8618
     2.9391   3.1751   3.3641   3.5003   3.5011   3.5855   3.6280   3.7177
     3.9970   4.4702   5.9899   6.3681   6.4934   6.7336   6.9697   7.0972
     7.2717   7.5929

          k = 1.2703 0.0645 0.1485 ( 36490 PWs)   bands (ev):

   -44.1345 -44.1345 -22.2475 -22.2475 -22.2233 -22.2233 -22.0620 -22.0620
    -6.9502  -6.8076  -6.6355  -6.5674  -5.7007  -5.4750  -5.1844  -5.1378
    -4.5416  -4.4981  -0.0543   0.1847   0.2818   0.8773   0.9474   1.2038
     1.5435   1.6332   1.9292   2.2194   2.2577   2.5966   2.6554   2.9001
     2.9284   3.1144   3.1823   3.3386   3.4670   3.5491   3.7625   3.8294
     3.9848   4.5030   5.7272   6.4436   6.6247   6.7910   6.9175   7.1007
     7.1543   7.5336

          k = 1.2703 0.0645-0.2971 ( 36480 PWs)   bands (ev):

   -44.1345 -44.1345 -22.2475 -22.2475 -22.2233 -22.2233 -22.0620 -22.0620
    -6.8887  -6.8887  -6.5956  -6.5956  -5.5846  -5.5846  -5.1635  -5.1635
    -4.5177  -4.5177   0.0760   0.0760   0.5279   0.5279   1.0419   1.0419
     1.5776   1.5776   2.1033   2.1033   2.4803   2.4803   2.8237   2.8237
     3.0247   3.0247   3.1624   3.1624   3.5903   3.5903   3.8847   3.8847
     4.0918   4.0918   6.1630   6.1630   6.4716   6.4716   7.1065   7.1065
     7.3846   7.3846

          k =-0.5081-0.3869 0.0000 ( 36463 PWs)   bands (ev):

   -44.1354 -44.1354 -22.2523 -22.2523 -22.2001 -22.2001 -22.0648 -22.0647
    -7.4751  -7.1965  -6.8962  -6.7359  -6.0125  -5.2590  -5.0510  -4.6811
    -4.5987  -4.4580   0.2687   0.5911   0.6501   1.2055   1.2234   1.5418
     1.6516   1.7342   1.9804   2.0669   2.1783   2.3389   2.4620   3.2839
     3.4423   3.4902   3.5147   3.6704   3.6754   3.7289   3.9018   4.1079
     4.3526   5.0133   5.6408   5.9828   6.2224   6.8024   6.8110   6.8686
     7.3456   7.5006

          k =-0.5081-0.3869 0.1485 ( 36477 PWs)   bands (ev):

   -44.1354 -44.1354 -22.2523 -22.2523 -22.2001 -22.2001 -22.0648 -22.0647
    -7.4465  -7.2595  -6.8532  -6.7498  -5.9364  -5.4631  -4.8976  -4.6437
    -4.6373  -4.4749   0.3086   0.6111   0.7482   0.9469   1.2417   1.3641
     1.6076   1.7003   1.9904   2.0560   2.3572   2.5368   2.8305   3.2301
     3.4421   3.4680   3.5064   3.5579   3.6284   3.7383   3.8572   4.1150
     4.2150   4.5238   6.1170   6.2399   6.2958   6.6926   6.8033   6.9001
     7.1717   7.4873

          k =-0.5081-0.3869-0.2971 ( 36492 PWs)   bands (ev):

   -44.1354 -44.1354 -22.2523 -22.2523 -22.2001 -22.2001 -22.0647 -22.0647
    -7.3666  -7.3666  -6.7906  -6.7906  -5.7329  -5.7329  -4.7470  -4.7470
    -4.5429  -4.5429   0.4552   0.4552   0.9943   0.9943   1.0377   1.0377
     1.6376   1.6376   2.0195   2.0195   2.7565   2.7565   3.1261   3.1261
     3.3674   3.3674   3.4749   3.4749   3.6821   3.6821   3.8616   3.8616
     4.2309   4.2309   6.3462   6.3462   6.6837   6.6837   6.7984   6.7984
     7.1977   7.1977

          k =-0.2541-0.3224 0.0000 ( 36485 PWs)   bands (ev):

   -44.1363 -44.1363 -22.2570 -22.2570 -22.1769 -22.1769 -22.0675 -22.0674
    -7.8256  -7.5362  -7.0487  -6.8569  -6.2096  -5.3735  -4.9149  -4.7885
    -4.7053  -3.9807   0.4406   0.8955   1.1044   1.1583   1.3252   1.5517
     1.7558   1.8673   1.8938   2.4732   2.5487   3.2318   3.3678   3.5171
     3.6018   3.6781   3.7324   3.8269   3.9439   4.1397   4.1647   4.2757
     4.3154   4.6286   5.9998   6.0432   6.3340   6.5762   6.6702   6.7782
     6.9230   7.0390

          k =-0.2541-0.3224 0.1485 ( 36445 PWs)   bands (ev):

   -44.1363 -44.1363 -22.2570 -22.2570 -22.1769 -22.1769 -22.0675 -22.0674
    -7.7951  -7.5986  -6.9997  -6.8732  -6.1308  -5.5960  -4.8275  -4.7255
    -4.6277  -4.0690   0.4968   0.9195   0.9620   1.1686   1.3032   1.4023
     1.7773   1.9561   2.2616   2.4763   2.5369   2.9365   3.3991   3.4741
     3.5149   3.5469   3.6590   3.8978   3.9202   4.0924   4.2251   4.2814
     4.6922   4.8028   5.8423   6.0169   6.1519   6.3699   6.5490   6.7546
     7.1407   7.2549

          k =-0.2541-0.3224-0.2971 ( 36442 PWs)   bands (ev):

   -44.1363 -44.1363 -22.2570 -22.2570 -22.1769 -22.1769 -22.0675 -22.0675
    -7.7103  -7.7103  -6.9228  -6.9228  -5.9081  -5.9081  -4.7727  -4.7727
    -4.3093  -4.3093   0.6681   0.6681   1.1243   1.1243   1.2344   1.2344
     2.0137   2.0137   2.4538   2.4538   2.6609   2.6609   3.2522   3.2522
     3.5001   3.5001   3.7990   3.7990   4.0530   4.0530   4.2608   4.2608
     5.0238   5.0238   5.7172   5.7172   6.1668   6.1668   6.6012   6.6012
     7.3599   7.3599

          k = 0.0000-0.2579 0.0000 ( 36445 PWs)   bands (ev):

   -44.1367 -44.1366 -22.2589 -22.2589 -22.1672 -22.1672 -22.0687 -22.0685
    -7.9494  -7.6531  -7.1169  -6.9025  -6.2677  -5.4208  -4.8920  -4.8263
    -4.7502  -3.8194   0.3583   0.7708   0.9410   1.1932   1.4417   1.6283
     2.1607   2.3041   2.3812   2.7876   2.9354   3.0275   3.3065   3.4365
     3.4880   3.6494   3.8054   3.9557   4.1564   4.2058   4.2833   4.6914
     4.7520   5.3760   5.7135   5.9285   5.9360   6.0486   6.2085   6.7972
     7.0159   7.1504

          k = 0.0000-0.2579 0.1485 ( 36452 PWs)   bands (ev):

   -44.1367 -44.1366 -22.2589 -22.2589 -22.1672 -22.1672 -22.0686 -22.0686
    -7.9182  -7.7169  -7.0620  -6.9202  -6.1913  -5.6495  -4.8480  -4.7689
    -4.6018  -3.9318   0.4270   0.9255   0.9658   1.0415   1.1629   1.9104
     2.1015   2.1845   2.3353   2.8235   2.9224   3.1059   3.3242   3.4329
     3.6414   3.6644   3.8658   3.9094   4.1856   4.2055   4.2350   4.6894
     4.7196   4.9397   5.8792   5.9927   6.0312   6.0965   6.4866   6.6167
     6.8371   7.0940

          k = 0.0000-0.2579-0.2971 ( 36454 PWs)   bands (ev):

   -44.1367 -44.1367 -22.2589 -22.2589 -22.1672 -22.1672 -22.0686 -22.0686
    -7.8314  -7.8314  -6.9753  -6.9753  -5.9692  -5.9692  -4.8075  -4.8075
    -4.2261  -4.2261   0.6524   0.6524   1.0510   1.0510   1.3712   1.3712
     2.2504   2.2504   2.6528   2.6528   2.8829   2.8829   3.4156   3.4156
     3.7763   3.7763   4.0255   4.0255   4.1200   4.1200   4.3776   4.3776
     4.6920   4.6920   5.9602   5.9602   6.2717   6.2717   6.4637   6.4637
     6.8925   6.8925

          k = 1.5243 0.0000 0.0000 ( 36439 PWs)   bands (ev):

   -44.1354 -44.1354 -22.2523 -22.2523 -22.2001 -22.2001 -22.0648 -22.0647
    -7.4715  -7.1959  -6.8964  -6.7382  -6.0161  -5.2590  -5.0537  -4.6829
    -4.5958  -4.4584   0.2639   0.5987   0.6433   1.2096   1.2323   1.6037
     1.6776   1.6975   1.9966   2.0602   2.2252   2.3051   2.4577   3.2420
     3.4435   3.4566   3.5219   3.6800   3.7020   3.7351   3.8055   4.1286
     4.3469   5.0156   5.6373   5.9449   6.2532   6.7749   6.8534   6.9270
     7.3019   7.5378

          k = 1.5243 0.0000 0.1485 ( 36476 PWs)   bands (ev):

   -44.1354 -44.1354 -22.2523 -22.2523 -22.2001 -22.2001 -22.0648 -22.0647
    -7.4431  -7.2578  -6.8547  -6.7523  -5.9390  -5.4634  -4.9014  -4.6425
    -4.6379  -4.4738   0.3059   0.6167   0.7450   0.9431   1.2460   1.3698
     1.6755   1.7178   1.9889   2.0345   2.3755   2.5312   2.8327   3.1918
     3.4014   3.4719   3.4948   3.5729   3.6527   3.7250   3.8229   4.1456
     4.1632   4.5300   6.0917   6.2542   6.2895   6.6627   6.8435   6.9695
     7.1254   7.5031

          k = 1.5243 0.0000-0.2971 ( 36508 PWs)   bands (ev):

   -44.1354 -44.1354 -22.2523 -22.2523 -22.2001 -22.2001 -22.0647 -22.0647
    -7.3638  -7.3638  -6.7932  -6.7932  -5.7340  -5.7340  -4.7503  -4.7503
    -4.5406  -4.5406   0.4566   0.4566   0.9918   0.9918   1.0357   1.0357
     1.6942   1.6942   1.9998   1.9998   2.7791   2.7791   3.0858   3.0858
     3.3681   3.3681   3.4646   3.4646   3.6794   3.6794   3.8595   3.8595
     4.2158   4.2158   6.3327   6.3327   6.6822   6.6822   6.8064   6.8064
     7.2148   7.2148

          k =-0.2541-0.4514 0.0000 ( 36444 PWs)   bands (ev):

   -44.1363 -44.1363 -22.2570 -22.2570 -22.1769 -22.1769 -22.0675 -22.0674
    -7.8198  -7.5353  -7.0448  -6.8600  -6.2227  -5.3758  -4.9249  -4.7874
    -4.7000  -3.9816   0.4519   0.9046   1.1503   1.2261   1.3392   1.6359
     1.7830   1.8707   1.9257   2.3961   2.4758   3.2331   3.3719   3.4473
     3.4828   3.7271   3.7381   3.8231   3.8770   4.1004   4.1097   4.2069
     4.3120   4.6443   6.0592   6.0742   6.3621   6.5830   6.6997   6.8142
     6.8330   7.0128

          k =-0.2541-0.4514 0.1485 ( 36461 PWs)   bands (ev):

   -44.1363 -44.1363 -22.2570 -22.2570 -22.1769 -22.1769 -22.0675 -22.0674
    -7.7896  -7.5960  -6.9988  -6.8766  -6.1413  -5.5988  -4.8397  -4.7226
    -4.6232  -4.0690   0.5069   0.9299   0.9655   1.2906   1.3465   1.4385
     1.8045   1.9584   2.3095   2.4029   2.4591   2.9472   3.3345   3.3746
     3.4844   3.5509   3.7316   3.8557   3.8937   3.9645   4.2108   4.2523
     4.7193   4.7853   5.8377   6.0394   6.1601   6.3665   6.6160   6.7407
     7.1314   7.2405

          k =-0.2541-0.4514-0.2971 ( 36490 PWs)   bands (ev):

   -44.1363 -44.1363 -22.2570 -22.2570 -22.1769 -22.1769 -22.0675 -22.0675
    -7.7057  -7.7057  -6.9254  -6.9254  -5.9138  -5.9138  -4.7770  -4.7770
    -4.3073  -4.3073   0.6756   0.6756   1.1366   1.1366   1.3334   1.3334
     2.0238   2.0238   2.4075   2.4075   2.6614   2.6614   3.2475   3.2475
     3.3913   3.3913   3.8410   3.8410   3.9827   3.9827   4.2306   4.2306
     5.0369   5.0369   5.6945   5.6945   6.1527   6.1527   6.6558   6.6558
     7.3512   7.3513

          k = 0.0000-0.3869 0.0000 ( 36477 PWs)   bands (ev):

   -44.1367 -44.1366 -22.2589 -22.2589 -22.1672 -22.1672 -22.0687 -22.0685
    -7.9421  -7.6518  -7.1094  -6.9066  -6.2879  -5.4252  -4.9110  -4.8198
    -4.7429  -3.8206   0.3810   0.7820   1.0906   1.2550   1.4662   1.6998
     2.1615   2.3058   2.3795   2.8067   2.9390   3.0595   3.1413   3.1962
     3.5566   3.5916   3.7776   3.9505   4.0097   4.0336   4.2835   4.6900
     4.7242   5.3509   5.7674   5.9474   6.0063   6.0975   6.2666   6.7292
     7.0159   7.1075

          k = 0.0000-0.3869 0.1485 ( 36452 PWs)   bands (ev):

   -44.1367 -44.1367 -22.2589 -22.2589 -22.1672 -22.1672 -22.0686 -22.0686
    -7.9112  -7.7136  -7.0587  -6.9243  -6.2078  -5.6546  -4.8636  -4.7642
    -4.5974  -3.9320   0.4465   0.9484   1.0184   1.1651   1.2403   1.9265
     2.1442   2.1853   2.3348   2.8394   2.9279   3.0331   3.1459   3.3325
     3.5390   3.7162   3.8399   3.9187   4.0539   4.0805   4.1971   4.6876
     4.7029   4.9379   5.9275   6.0346   6.0618   6.1105   6.5040   6.5735
     6.8395   7.0549

          k = 0.0000-0.3869-0.2971 ( 36454 PWs)   bands (ev):

   -44.1367 -44.1367 -22.2589 -22.2589 -22.1672 -22.1672 -22.0686 -22.0686
    -7.8256  -7.8256  -6.9774  -6.9774  -5.9788  -5.9788  -4.8127  -4.8127
    -4.2242  -4.2242   0.6705   0.6705   1.1755   1.1755   1.3891   1.3891
     2.2509   2.2509   2.6704   2.6704   2.8931   2.8931   3.1891   3.1891
     3.8185   3.8185   4.0042   4.0042   4.0057   4.0057   4.3503   4.3503
     4.6869   4.6869   5.9654   5.9654   6.2995   6.2995   6.4711   6.4711
     6.8601   6.8601

          k =-2.0325 0.0000 0.0000 ( 36452 PWs)   bands (ev):

   -44.1367 -44.1366 -22.2589 -22.2589 -22.1672 -22.1672 -22.0687 -22.0685
    -7.9390  -7.6513  -7.1065  -6.9079  -6.2965  -5.4270  -4.9184  -4.8165
    -4.7410  -3.8211   0.3869   0.7869   1.2135   1.2318   1.4759   1.7431
     2.1618   2.3073   2.3788   2.8150   2.9403   3.0217   3.0778   3.0784
     3.5516   3.7341   3.7660   3.8585   3.9504   3.9712   4.2836   4.6895
     4.7128   5.3432   5.7895   5.9552   6.0434   6.1127   6.2847   6.6826
     7.0159   7.1003

          k =-2.0325 0.0000 0.1485 ( 36456 PWs)   bands (ev):

   -44.1367 -44.1367 -22.2589 -22.2589 -22.1672 -22.1672 -22.0686 -22.0686
    -7.9083  -7.7122  -7.0575  -6.9256  -6.2148  -5.6567  -4.8696  -4.7627
    -4.5958  -3.9321   0.4510   0.9571   1.0341   1.2398   1.2790   1.9340
     2.1649   2.1856   2.3346   2.8464   2.9300   2.9540   3.0269   3.3321
     3.5157   3.8022   3.8291   3.9313   3.9581   4.0077   4.1934   4.6871
     4.6960   4.9379   5.9519   6.0526   6.0655   6.1164   6.5081   6.5456
     6.8405   7.0434

          k =-2.0325 0.0000-0.2971 ( 36460 PWs)   bands (ev):

   -44.1367 -44.1367 -22.2589 -22.2589 -22.1672 -22.1672 -22.0686 -22.0686
    -7.8232  -7.8232  -6.9784  -6.9784  -5.9828  -5.9828  -4.8149  -4.8149
    -4.2234  -4.2234   0.6744   0.6744   1.2416   1.2416   1.3971   1.3971
     2.2511   2.2511   2.6676   2.6676   2.8974   2.8974   3.0882   3.0882
     3.8790   3.8790   3.9243   3.9243   3.9974   3.9974   4.3406   4.3406
     4.6848   4.6848   5.9637   5.9637   6.3092   6.3092   6.4742   6.4742
     6.8454   6.8454

     the Fermi energy is     5.4740 ev

!    total energy              =   -4240.95266726 Ry

     total all-electron energy =   -150287.646362 Ry
     estimated scf accuracy    <          9.8E-12 Ry
     smearing contrib. (-TS)   =       0.00000254 Ry
     internal energy E=F+TS    =   -4240.95266981 Ry

     The total energy is F=E-TS. E is the sum of the following terms:
     one-electron contribution =    -167.40106232 Ry
     hartree contribution      =     117.17289106 Ry
     xc contribution           =    -201.52971441 Ry
     ewald contribution        =    -221.66998116 Ry
     one-center paw contrib.   =   -3767.52480298 Ry

     convergence has been achieved in  18 iterations

     Forces acting on atoms (cartesian axes, Ry/au):

     atom    1 type  1   force =     0.00000000    0.00502517    0.00000000
     atom    2 type  1   force =     0.00000000   -0.00502517    0.00000000
     atom    3 type  2   force =     0.00000000    0.00001960    0.00000000
     atom    4 type  2   force =     0.00000000   -0.00001960    0.00000000
     atom    5 type  2   force =     0.00000000   -0.00114857   -0.00039282
     atom    6 type  2   force =     0.00000000    0.00114857    0.00039282
     atom    7 type  2   force =     0.00000000   -0.00114857    0.00039282
     atom    8 type  2   force =     0.00000000    0.00114857   -0.00039282
     atom    9 type  2   force =     0.00000000   -0.00804215   -0.00863255
     atom   10 type  2   force =     0.00000000    0.00804215    0.00863255
     atom   11 type  2   force =     0.00000000   -0.00804215    0.00863255
     atom   12 type  2   force =     0.00000000    0.00804215   -0.00863255

     Total force =     0.024763     Total SCF correction =     0.000003


     Computing stress (Cartesian axis) and pressure

          total   stress  (Ry/bohr**3)                   (kbar)     P=        1.96
   0.00001218   0.00000000   0.00000000            1.79        0.00        0.00
   0.00000000   0.00000939   0.00000000            0.00        1.38        0.00
   0.00000000   0.00000000   0.00001835            0.00        0.00        2.70

 
     init_run     :     35.55s CPU     36.85s WALL (       1 calls)
     electrons    :   1711.56s CPU   1730.25s WALL (       1 calls)
     forces       :      7.18s CPU      7.45s WALL (       1 calls)
     stress       :     49.23s CPU     50.02s WALL (       1 calls)

     Called by init_run:
     wfcinit      :     30.62s CPU     30.88s WALL (       1 calls)
     potinit      :      1.48s CPU      1.55s WALL (       1 calls)
     hinit0       :      1.72s CPU      2.40s WALL (       1 calls)

     Called by electrons:
     c_bands      :   1365.77s CPU   1373.21s WALL (      19 calls)
     sum_band     :    309.74s CPU    316.43s WALL (      19 calls)
     v_of_rho     :      9.35s CPU     10.04s WALL (      19 calls)
     newd         :     19.13s CPU     23.21s WALL (      19 calls)
     PAW_pot      :      6.99s CPU      7.00s WALL (      19 calls)
     mix_rho      :      1.69s CPU      1.74s WALL (      19 calls)

     Called by c_bands:
     init_us_2    :     14.59s CPU     14.65s WALL (    2583 calls)
     cegterg      :   1285.31s CPU   1291.96s WALL (    1197 calls)

     Called by *egterg:
     cdiaghg      :     27.81s CPU     27.95s WALL (    7990 calls)
     h_psi        :   1110.25s CPU   1116.70s WALL (    8116 calls)
     s_psi        :     50.98s CPU     51.04s WALL (    8116 calls)
     g_psi        :      2.21s CPU      2.23s WALL (    6856 calls)

     Called by h_psi:
     h_psi:calbec :     43.22s CPU     43.32s WALL (    8116 calls)
     vloc_psi     :   1012.35s CPU   1018.52s WALL (    8116 calls)
     add_vuspsi   :     50.75s CPU     50.85s WALL (    8116 calls)

     General routines
     calbec       :     57.73s CPU     57.89s WALL (    9628 calls)
     fft          :      8.47s CPU      9.34s WALL (     271 calls)
     ffts         :      0.20s CPU      0.21s WALL (      38 calls)
     fftw         :   1024.04s CPU   1030.22s WALL (  426136 calls)
     interpolate  :      0.69s CPU      0.69s WALL (      19 calls)
 
     Parallel routines
     fft_scatt_xy :    279.26s CPU    280.99s WALL (  426445 calls)
     fft_scatt_yz :    184.02s CPU    185.56s WALL (  426445 calls)
 
     PWSCF        :  30m 4.06s CPU  30m29.52s WALL

 
   This run was terminated on:  15:16:46  19Nov2021            

=------------------------------------------------------------------------------=
   JOB DONE.
=------------------------------------------------------------------------------=
