
     Program PWSCF v.6.7MaX starts on 19Nov2021 at 14:46:19 

     This program is part of the open-source Quantum ESPRESSO suite
     for quantum simulation of materials; please cite
         "P. Giannozzi et al., J. Phys.:Condens. Matter 21 395502 (2009);
         "P. Giannozzi et al., J. Phys.:Condens. Matter 29 465901 (2017);
          URL http://www.quantum-espresso.org", 
     in publications or presentations arising from this work. More details at
     http://www.quantum-espresso.org/quote

     Parallel version (MPI), running on    10 processors

     MPI processes distributed on     1 nodes
     R & G space division:  proc/nbgrp/npool/nimage =      10
     Waiting for input...
     Reading input from standard input

     Current dimensions of program PWSCF are:
     Max number of different atomic species (ntypx) = 10
     Max number of k-points (npk) =  40000
     Max angular momentum in pseudopotentials (lmaxx) =  3
     file Zr.pbe-spn-kjpaw_psl.1.0.0.UPF: wavefunction(s)  4S 4P renormalized
     file Te.pbe-n-kjpaw_psl.1.0.0.UPF: wavefunction(s)  5S 5P renormalized

     Subspace diagonalization in iterative solution of the eigenvalue problem:
     a serial algorithm will be used

     Message from routine setup:
     using ibrav=0 with symmetry is DISCOURAGED, use correct ibrav instead
 
     Parallelization info
     --------------------
     sticks:   dense  smooth     PW     G-vecs:    dense   smooth      PW
     Min         734     293     87               115340    29174    4753
     Max         735     295     88               115345    29176    4760
     Sum        7345    2937    873              1153415   291749   47557
 


     bravais-lattice index     =            0
     lattice parameter (alat)  =      15.5510  a.u.
     unit-cell volume          =    3018.5011 (a.u.)^3
     number of atoms/cell      =           12
     number of atomic types    =            2
     number of electrons       =        84.00
     number of Kohn-Sham states=           50
     kinetic-energy cutoff     =      80.0000  Ry
     charge density cutoff     =     800.0000  Ry
     scf convergence threshold =      1.0E-10
     mixing beta               =       0.7000
     number of iterations used =            8  plain     mixing
     Exchange-correlation= SLA  PW   PBX  PBC
                           (   1   4   3   4   0   0   0)

     celldm(1)=  15.551040  celldm(2)=   0.000000  celldm(3)=   0.000000
     celldm(4)=   0.000000  celldm(5)=   0.000000  celldm(6)=   0.000000

     crystal axes: (cart. coord. in units of alat)
               a(1) = (   0.246007  -0.969268   0.000000 )  
               a(2) = (   0.246007   0.969268   0.000000 )  
               a(3) = (   0.000000   0.000000   1.683031 )  

     reciprocal axes: (cart. coord. in units 2 pi/alat)
               b(1) = (  2.032465 -0.515853  0.000000 )  
               b(2) = (  2.032465  0.515853  0.000000 )  
               b(3) = (  0.000000  0.000000  0.594166 )  


     PseudoPot. # 1 for Zr read from file:
     pseudo/Zr.pbe-spn-kjpaw_psl.1.0.0.UPF
     MD5 check sum: 02112c41713a0468aff2bb39ef194e36
     Pseudo is Projector augmented-wave + core cor, Zval = 12.0
     Generated using &quot;atomic&quot; code by A. Dal Corso  v.6.2.2
     Shape of augmentation charge: PSQ
     Using radial grid of 1225 points,  6 beta functions with: 
                l(1) =   0
                l(2) =   0
                l(3) =   1
                l(4) =   1
                l(5) =   2
                l(6) =   2
     Q(r) pseudized with 0 coefficients 


     PseudoPot. # 2 for Te read from file:
     pseudo/Te.pbe-n-kjpaw_psl.1.0.0.UPF
     MD5 check sum: 66247bff2bd9dbf220fbb0bf5ab56e9d
     Pseudo is Projector augmented-wave + core cor, Zval =  6.0
     Generated using &quot;atomic&quot; code by A. Dal Corso  v.6.3
     Shape of augmentation charge: PSQ
     Using radial grid of 1245 points,  6 beta functions with: 
                l(1) =   0
                l(2) =   0
                l(3) =   1
                l(4) =   1
                l(5) =   2
                l(6) =   2
     Q(r) pseudized with 0 coefficients 


     atomic species   valence    mass     pseudopotential
        Zr            12.00    91.22000     Zr( 1.00)
        Te             6.00   127.60000     Te( 1.00)

      8 Sym. Ops., with inversion, found ( 4 have fractional translation)



   Cartesian axes

     site n.     atom                  positions (alat units)
         1           Zr  tau(   1) = (   0.0000000   0.6025766   0.4207578  )
         2           Zr  tau(   2) = (   0.2460067   0.3666915   1.2622733  )
         3           Te  tau(   3) = (   0.2460067   0.3341875   0.4207578  )
         4           Te  tau(   4) = (   0.0000000   0.6350806   1.2622733  )
         5           Te  tau(   5) = (   0.2460067   0.8112054   0.2530051  )
         6           Te  tau(   6) = (   0.0000000   0.1580627   1.4300260  )
         7           Te  tau(   7) = (   0.2460067   0.8112054   0.5885104  )
         8           Te  tau(   8) = (   0.0000000   0.1580627   1.0945206  )
         9           Te  tau(   9) = (   0.0000000   0.4202015   0.7359482  )
        10           Te  tau(  10) = (   0.2460067   0.5490667   0.9470829  )
        11           Te  tau(  11) = (   0.0000000   0.4202015   0.1055674  )
        12           Te  tau(  12) = (   0.2460067   0.5490667   1.5774637  )

     number of k points=    63  Methfessel-Paxton smearing, width (Ry)=  0.0030
                       cart. coord. in units 2pi/alat
        k(    1) = (   0.0000000   0.0000000   0.0000000), wk =   0.0078125
        k(    2) = (   0.0000000   0.0000000   0.1485415), wk =   0.0156250
        k(    3) = (   0.0000000   0.0000000  -0.2970830), wk =   0.0078125
        k(    4) = (   0.2540581   0.0644816   0.0000000), wk =   0.0312500
        k(    5) = (   0.2540581   0.0644816   0.1485415), wk =   0.0625000
        k(    6) = (   0.2540581   0.0644816  -0.2970830), wk =   0.0312500
        k(    7) = (   0.5081162   0.1289633   0.0000000), wk =   0.0312500
        k(    8) = (   0.5081162   0.1289633   0.1485415), wk =   0.0625000
        k(    9) = (   0.5081162   0.1289633  -0.2970830), wk =   0.0312500
        k(   10) = (   0.7621743   0.1934449   0.0000000), wk =   0.0312500
        k(   11) = (   0.7621743   0.1934449   0.1485415), wk =   0.0625000
        k(   12) = (   0.7621743   0.1934449  -0.2970830), wk =   0.0312500
        k(   13) = (  -1.0162324  -0.2579266   0.0000000), wk =   0.0156250
        k(   14) = (  -1.0162324  -0.2579266   0.1485415), wk =   0.0312500
        k(   15) = (  -1.0162324  -0.2579266  -0.2970830), wk =   0.0156250
        k(   16) = (   0.5081162   0.0000000   0.0000000), wk =   0.0156250
        k(   17) = (   0.5081162   0.0000000   0.1485415), wk =   0.0312500
        k(   18) = (   0.5081162   0.0000000  -0.2970830), wk =   0.0156250
        k(   19) = (   0.7621743   0.0644816   0.0000000), wk =   0.0312500
        k(   20) = (   0.7621743   0.0644816   0.1485415), wk =   0.0625000
        k(   21) = (   0.7621743   0.0644816  -0.2970830), wk =   0.0312500
        k(   22) = (   1.0162324   0.1289633   0.0000000), wk =   0.0312500
        k(   23) = (   1.0162324   0.1289633   0.1485415), wk =   0.0625000
        k(   24) = (   1.0162324   0.1289633  -0.2970830), wk =   0.0312500
        k(   25) = (  -0.7621743  -0.3224082   0.0000000), wk =   0.0312500
        k(   26) = (  -0.7621743  -0.3224082   0.1485415), wk =   0.0625000
        k(   27) = (  -0.7621743  -0.3224082  -0.2970830), wk =   0.0312500
        k(   28) = (  -0.5081162  -0.2579266   0.0000000), wk =   0.0312500
        k(   29) = (  -0.5081162  -0.2579266   0.1485415), wk =   0.0625000
        k(   30) = (  -0.5081162  -0.2579266  -0.2970830), wk =   0.0312500
        k(   31) = (  -0.2540581  -0.1934449   0.0000000), wk =   0.0312500
        k(   32) = (  -0.2540581  -0.1934449   0.1485415), wk =   0.0625000
        k(   33) = (  -0.2540581  -0.1934449  -0.2970830), wk =   0.0312500
        k(   34) = (   0.0000000  -0.1289633   0.0000000), wk =   0.0156250
        k(   35) = (   0.0000000  -0.1289633   0.1485415), wk =   0.0312500
        k(   36) = (   0.0000000  -0.1289633  -0.2970830), wk =   0.0156250
        k(   37) = (   1.0162324   0.0000000   0.0000000), wk =   0.0156250
        k(   38) = (   1.0162324   0.0000000   0.1485415), wk =   0.0312500
        k(   39) = (   1.0162324   0.0000000  -0.2970830), wk =   0.0156250
        k(   40) = (   1.2702905   0.0644816   0.0000000), wk =   0.0312500
        k(   41) = (   1.2702905   0.0644816   0.1485415), wk =   0.0625000
        k(   42) = (   1.2702905   0.0644816  -0.2970830), wk =   0.0312500
        k(   43) = (  -0.5081162  -0.3868899   0.0000000), wk =   0.0312500
        k(   44) = (  -0.5081162  -0.3868899   0.1485415), wk =   0.0625000
        k(   45) = (  -0.5081162  -0.3868899  -0.2970830), wk =   0.0312500
        k(   46) = (  -0.2540581  -0.3224082   0.0000000), wk =   0.0312500
        k(   47) = (  -0.2540581  -0.3224082   0.1485415), wk =   0.0625000
        k(   48) = (  -0.2540581  -0.3224082  -0.2970830), wk =   0.0312500
        k(   49) = (   0.0000000  -0.2579266   0.0000000), wk =   0.0156250
        k(   50) = (   0.0000000  -0.2579266   0.1485415), wk =   0.0312500
        k(   51) = (   0.0000000  -0.2579266  -0.2970830), wk =   0.0156250
        k(   52) = (   1.5243485   0.0000000   0.0000000), wk =   0.0156250
        k(   53) = (   1.5243485   0.0000000   0.1485415), wk =   0.0312500
        k(   54) = (   1.5243485   0.0000000  -0.2970830), wk =   0.0156250
        k(   55) = (  -0.2540581  -0.4513715   0.0000000), wk =   0.0312500
        k(   56) = (  -0.2540581  -0.4513715   0.1485415), wk =   0.0625000
        k(   57) = (  -0.2540581  -0.4513715  -0.2970830), wk =   0.0312500
        k(   58) = (   0.0000000  -0.3868899   0.0000000), wk =   0.0156250
        k(   59) = (   0.0000000  -0.3868899   0.1485415), wk =   0.0312500
        k(   60) = (   0.0000000  -0.3868899  -0.2970830), wk =   0.0156250
        k(   61) = (  -2.0324647   0.0000000   0.0000000), wk =   0.0078125
        k(   62) = (  -2.0324647   0.0000000   0.1485415), wk =   0.0156250
        k(   63) = (  -2.0324647   0.0000000  -0.2970830), wk =   0.0078125

     Dense  grid:  1153415 G-vectors     FFT dimensions: ( 144, 144, 240)

     Smooth grid:   291749 G-vectors     FFT dimensions: (  90,  90, 150)

     Estimated max dynamical RAM per process >     657.19 MB

     Estimated total dynamical RAM >       6.42 GB

     Initial potential from superposition of free atoms

     starting charge   83.99353, renormalised to   84.00000
     Starting wfcs are   66 randomized atomic wfcs
     Checking if some PAW data can be deallocated... 

     total cpu time spent up to now is       42.7 secs

     Self-consistent Calculation

     iteration #  1     ecut=    80.00 Ry     beta= 0.70
     Davidson diagonalization with overlap
     ethr =  1.00E-02,  avg # of iterations =  2.2

     Threshold (ethr) on eigenvalues was too large:
     Diagonalizing with lowered threshold

     Davidson diagonalization with overlap
     ethr =  4.42E-04,  avg # of iterations =  4.0

     total cpu time spent up to now is      201.0 secs

     total energy              =   -4240.72188654 Ry
     estimated scf accuracy    <       0.44279979 Ry

     iteration #  2     ecut=    80.00 Ry     beta= 0.70
     Davidson diagonalization with overlap
     ethr =  5.27E-04,  avg # of iterations =  8.0

     total cpu time spent up to now is      314.4 secs

     total energy              =   -4240.62547176 Ry
     estimated scf accuracy    <       2.03584510 Ry

     iteration #  3     ecut=    80.00 Ry     beta= 0.70
     Davidson diagonalization with overlap
     ethr =  5.27E-04,  avg # of iterations =  5.4

     total cpu time spent up to now is      408.3 secs

     total energy              =   -4240.93515313 Ry
     estimated scf accuracy    <       0.00792603 Ry

     iteration #  4     ecut=    80.00 Ry     beta= 0.70
     Davidson diagonalization with overlap
     c_bands:  1 eigenvalues not converged
     c_bands:  2 eigenvalues not converged
     c_bands:  1 eigenvalues not converged
     c_bands:  2 eigenvalues not converged
     c_bands:  2 eigenvalues not converged
     c_bands:  2 eigenvalues not converged
     c_bands:  2 eigenvalues not converged
     c_bands:  1 eigenvalues not converged
     c_bands:  4 eigenvalues not converged
     c_bands:  1 eigenvalues not converged
     c_bands:  2 eigenvalues not converged
     c_bands:  2 eigenvalues not converged
     c_bands:  4 eigenvalues not converged
     c_bands:  1 eigenvalues not converged
     c_bands:  2 eigenvalues not converged
     c_bands:  1 eigenvalues not converged
     c_bands:  1 eigenvalues not converged
     ethr =  9.44E-06,  avg # of iterations = 17.1

     total cpu time spent up to now is      586.8 secs

     total energy              =   -4240.94488459 Ry
     estimated scf accuracy    <       0.04094478 Ry

     iteration #  5     ecut=    80.00 Ry     beta= 0.70
     Davidson diagonalization with overlap
     ethr =  9.44E-06,  avg # of iterations =  6.9

     total cpu time spent up to now is      679.7 secs

     total energy              =   -4240.94666315 Ry
     estimated scf accuracy    <       0.00699897 Ry

     iteration #  6     ecut=    80.00 Ry     beta= 0.70
     Davidson diagonalization with overlap
     ethr =  8.33E-06,  avg # of iterations =  3.4

     total cpu time spent up to now is      756.7 secs

     total energy              =   -4240.94731480 Ry
     estimated scf accuracy    <       0.00087186 Ry

     iteration #  7     ecut=    80.00 Ry     beta= 0.70
     Davidson diagonalization with overlap
     ethr =  1.04E-06,  avg # of iterations =  9.7

     total cpu time spent up to now is      874.7 secs

     total energy              =   -4240.94774879 Ry
     estimated scf accuracy    <       0.00102563 Ry

     iteration #  8     ecut=    80.00 Ry     beta= 0.70
     Davidson diagonalization with overlap
     ethr =  1.04E-06,  avg # of iterations =  2.2

     total cpu time spent up to now is      944.6 secs

     total energy              =   -4240.94778790 Ry
     estimated scf accuracy    <       0.00013374 Ry

     iteration #  9     ecut=    80.00 Ry     beta= 0.70
     Davidson diagonalization with overlap
     ethr =  1.59E-07,  avg # of iterations =  6.3

     total cpu time spent up to now is     1037.8 secs

     total energy              =   -4240.94783499 Ry
     estimated scf accuracy    <       0.00002500 Ry

     iteration # 10     ecut=    80.00 Ry     beta= 0.70
     Davidson diagonalization with overlap
     ethr =  2.98E-08,  avg # of iterations =  2.4

     total cpu time spent up to now is     1109.5 secs

     total energy              =   -4240.94783663 Ry
     estimated scf accuracy    <       0.00000314 Ry

     iteration # 11     ecut=    80.00 Ry     beta= 0.70
     Davidson diagonalization with overlap
     ethr =  3.74E-09,  avg # of iterations =  6.4

     total cpu time spent up to now is     1208.2 secs

     total energy              =   -4240.94783841 Ry
     estimated scf accuracy    <       0.00000118 Ry

     iteration # 12     ecut=    80.00 Ry     beta= 0.70
     Davidson diagonalization with overlap
     ethr =  1.41E-09,  avg # of iterations =  1.7

     total cpu time spent up to now is     1276.8 secs

     total energy              =   -4240.94783842 Ry
     estimated scf accuracy    <       0.00000023 Ry

     iteration # 13     ecut=    80.00 Ry     beta= 0.70
     Davidson diagonalization with overlap
     ethr =  2.71E-10,  avg # of iterations =  6.0

     total cpu time spent up to now is     1370.4 secs

     total energy              =   -4240.94783851 Ry
     estimated scf accuracy    <       0.00000006 Ry

     iteration # 14     ecut=    80.00 Ry     beta= 0.70
     Davidson diagonalization with overlap
     ethr =  6.68E-11,  avg # of iterations =  1.7

     total cpu time spent up to now is     1438.0 secs

     total energy              =   -4240.94783851 Ry
     estimated scf accuracy    <       0.00000003 Ry

     iteration # 15     ecut=    80.00 Ry     beta= 0.70
     Davidson diagonalization with overlap
     ethr =  3.02E-11,  avg # of iterations =  5.0

     total cpu time spent up to now is     1519.6 secs

     total energy              =   -4240.94783851 Ry
     estimated scf accuracy    <          2.0E-10 Ry

     iteration # 16     ecut=    80.00 Ry     beta= 0.70
     Davidson diagonalization with overlap
     ethr =  2.38E-13,  avg # of iterations = 10.8

     total cpu time spent up to now is     1661.7 secs

     total energy              =   -4240.94783851 Ry
     estimated scf accuracy    <          2.6E-09 Ry

     iteration # 17     ecut=    80.00 Ry     beta= 0.70
     Davidson diagonalization with overlap
     ethr =  2.38E-13,  avg # of iterations =  4.2

     total cpu time spent up to now is     1745.2 secs

     total energy              =   -4240.94783851 Ry
     estimated scf accuracy    <          8.7E-10 Ry

     iteration # 18     ecut=    80.00 Ry     beta= 0.70
     Davidson diagonalization with overlap
     ethr =  2.38E-13,  avg # of iterations =  5.5

     total cpu time spent up to now is     1829.5 secs

     End of self-consistent calculation

          k = 0.0000 0.0000 0.0000 ( 36359 PWs)   bands (ev):

   -44.1409 -44.1408 -22.2593 -22.2593 -22.1688 -22.1688 -22.0748 -22.0747
    -8.0738  -7.8222  -7.1290  -6.9256  -6.1718  -5.4128  -4.8078  -4.7949
    -4.7580  -3.7974   0.2684   0.7696   0.8097   1.1463   1.3519   1.5365
     2.0261   2.1930   2.2815   2.7854   2.9200   2.9967   3.3141   3.3337
     3.7916   3.8906   4.0491   4.0876   4.3180   4.3404   4.4204   4.7133
     4.7428   5.3912   5.6361   5.8779   5.8962   5.9741   5.9930   6.7771
     7.0498   7.2799

          k = 0.0000 0.0000 0.1485 ( 36415 PWs)   bands (ev):

   -44.1409 -44.1408 -22.2593 -22.2593 -22.1688 -22.1688 -22.0748 -22.0747
    -8.0455  -7.8719  -7.0827  -6.9442  -6.1044  -5.6153  -4.8004  -4.7653
    -4.5651  -3.9090   0.3433   0.8389   0.9132   0.9598   1.1029   1.8732
     2.0239   2.0458   2.1620   2.8126   2.9058   3.0689   3.3981   3.4379
     3.7619   3.9436   4.0216   4.0976   4.2468   4.3707   4.4317   4.7091
     4.7200   4.9152   5.8407   5.8915   5.8974   6.1328   6.3673   6.6151
     6.8638   7.1432

          k = 0.0000 0.0000-0.2971 ( 36410 PWs)   bands (ev):

   -44.1408 -44.1408 -22.2593 -22.2593 -22.1688 -22.1688 -22.0747 -22.0747
    -7.9684  -7.9684  -7.0007  -7.0007  -5.9059  -5.9059  -4.7829  -4.7829
    -4.1992  -4.1992   0.5704   0.5704   0.9595   0.9595   1.3439   1.3439
     2.0986   2.0986   2.5869   2.5869   2.8653   2.8653   3.5711   3.5711
     3.9217   3.9217   4.0848   4.0848   4.3221   4.3221   4.4177   4.4177
     4.7046   4.7046   5.8895   5.8895   6.2245   6.2245   6.4896   6.4896
     6.8492   6.8492

          k = 0.2541 0.0645 0.0000 ( 36396 PWs)   bands (ev):

   -44.1405 -44.1405 -22.2573 -22.2573 -22.1784 -22.1784 -22.0737 -22.0736
    -7.9511  -7.7027  -7.0625  -6.8768  -6.1117  -5.3652  -4.8339  -4.7627
    -4.7128  -3.9672   0.3514   0.8868   0.9354   1.0594   1.2573   1.4786
     1.6031   1.7192   1.7991   2.5846   2.6125   3.2388   3.2462   3.7110
     3.7728   3.7771   3.8636   3.8727   4.0587   4.2558   4.3270   4.3810
     4.4731   4.5753   5.8914   5.9793   6.1803   6.5290   6.5941   6.6536
     7.0331   7.2122

          k = 0.2541 0.0645 0.1485 ( 36423 PWs)   bands (ev):

   -44.1405 -44.1405 -22.2573 -22.2573 -22.1784 -22.1784 -22.0737 -22.0736
    -7.9232  -7.7519  -7.0197  -6.8937  -6.0436  -5.5631  -4.7676  -4.7221
    -4.6094  -4.0554   0.4151   0.8696   0.9226   0.9773   1.2076   1.2782
     1.7286   1.7977   2.1310   2.5813   2.5948   2.9539   3.3932   3.4024
     3.5297   3.8242   3.9553   4.0036   4.0516   4.1940   4.3805   4.3995
     4.6905   4.7610   5.8718   5.9877   6.1379   6.2439   6.3464   6.7821
     7.2122   7.2642

          k = 0.2541 0.0645-0.2971 ( 36436 PWs)   bands (ev):

   -44.1405 -44.1405 -22.2573 -22.2573 -22.1784 -22.1784 -22.0736 -22.0736
    -7.8472  -7.8472  -6.9450  -6.9450  -5.8465  -5.8465  -4.7439  -4.7439
    -4.2938  -4.2938   0.6012   0.6012   1.0202   1.0202   1.1167   1.1167
     1.8830   1.8830   2.4861   2.4861   2.6559   2.6559   3.2463   3.2463
     3.6625   3.6625   3.9856   3.9856   4.1491   4.1491   4.4021   4.4021
     4.9572   4.9572   5.7939   5.7939   6.1478   6.1478   6.4579   6.4579
     7.3758   7.3758

          k = 0.5081 0.1290 0.0000 ( 36499 PWs)   bands (ev):

   -44.1396 -44.1396 -22.2526 -22.2526 -22.2015 -22.2015 -22.0710 -22.0709
    -7.5944  -7.3526  -6.9042  -6.7540  -5.9350  -5.2504  -5.0175  -4.6490
    -4.6017  -4.4678   0.1731   0.5287   0.6714   1.1220   1.1711   1.3034
     1.6329   1.7076   1.8500   2.0891   2.1509   2.3450   2.5172   3.4136
     3.5016   3.5257   3.5769   3.6233   3.7702   3.8549   3.9719   4.2056
     4.3394   4.9316   5.7431   6.1250   6.2221   6.6037   6.6315   7.0145
     7.4477   7.5582

          k = 0.5081 0.1290 0.1485 ( 36476 PWs)   bands (ev):

   -44.1396 -44.1396 -22.2526 -22.2526 -22.2015 -22.2015 -22.0710 -22.0709
    -7.5678  -7.4021  -6.8682  -6.7675  -5.8692  -5.4381  -4.8678  -4.6345
    -4.6202  -4.4891   0.2173   0.5200   0.7650   0.9198   1.2044   1.2911
     1.4045   1.5727   2.0081   2.0932   2.3430   2.4640   2.8392   3.3943
     3.4427   3.5057   3.5116   3.6488   3.7446   3.7718   3.8615   4.2465
     4.2988   4.4766   6.2067   6.2444   6.3980   6.6039   6.6818   6.8825
     7.2953   7.5230

          k = 0.5081 0.1290-0.2971 ( 36466 PWs)   bands (ev):

   -44.1396 -44.1396 -22.2526 -22.2526 -22.2015 -22.2015 -22.0709 -22.0709
    -7.4949  -7.4949  -6.8082  -6.8082  -5.6875  -5.6875  -4.7179  -4.7179
    -4.5527  -4.5527   0.3623   0.3623   0.9868   0.9868   1.0158   1.0158
     1.4479   1.4479   2.0554   2.0554   2.6742   2.6742   3.1799   3.1799
     3.3956   3.3956   3.5711   3.5711   3.7402   3.7402   3.8776   3.8776
     4.3268   4.3268   6.4451   6.4451   6.5681   6.5681   6.8709   6.8709
     7.2013   7.2013

          k = 0.7622 0.1934 0.0000 ( 36521 PWs)   bands (ev):

   -44.1387 -44.1387 -22.2479 -22.2479 -22.2245 -22.2245 -22.0683 -22.0682
    -7.0645  -6.8030  -6.7564  -6.5903  -5.7325  -5.4666  -5.1668  -5.1381
    -4.5230  -4.4856  -0.1247   0.0201   0.3305   0.9507   0.9574   1.2885
     1.4862   1.6005   2.0008   2.1736   2.2316   2.2659   2.4384   2.8041
     2.9543   3.2574   3.3536   3.4944   3.5065   3.6680   3.7351   3.7700
     3.8343   4.5755   6.0623   6.4132   6.4888   6.9058   6.9294   6.9949
     7.3640   7.6363

          k = 0.7622 0.1934 0.1485 ( 36503 PWs)   bands (ev):

   -44.1387 -44.1387 -22.2479 -22.2479 -22.2245 -22.2245 -22.0683 -22.0682
    -7.0410  -6.8824  -6.6934  -6.6019  -5.6908  -5.5013  -5.1680  -5.1455
    -4.5152  -4.4892  -0.0994   0.1580   0.2247   0.8279   0.9647   1.2420
     1.4968   1.6075   1.9851   2.0418   2.1271   2.5955   2.6953   2.8862
     2.9205   3.0511   3.2717   3.3730   3.5164   3.6125   3.7108   3.9312
     3.9808   4.4755   5.8804   6.4073   6.7125   6.8432   7.0171   7.0226
     7.1474   7.6412

          k = 0.7622 0.1934-0.2971 ( 36522 PWs)   bands (ev):

   -44.1387 -44.1387 -22.2479 -22.2479 -22.2245 -22.2245 -22.0683 -22.0683
    -6.9753  -6.9753  -6.6362  -6.6362  -5.5930  -5.5930  -5.1605  -5.1605
    -4.5001  -4.5001   0.0283   0.0283   0.4804   0.4804   1.0815   1.0815
     1.5595   1.5595   2.0062   2.0062   2.4136   2.4136   2.8364   2.8364
     2.9732   2.9732   3.2863   3.2863   3.5975   3.5975   3.9401   3.9401
     4.0637   4.0637   6.2879   6.2879   6.4995   6.4995   7.0391   7.0391
     7.5168   7.5168

          k =-1.0162-0.2579 0.0000 ( 36506 PWs)   bands (ev):

   -44.1383 -44.1383 -22.2458 -22.2458 -22.2341 -22.2341 -22.0671 -22.0671
    -6.7414  -6.7208  -6.1602  -6.1489  -6.1287  -6.1234  -5.2367  -5.2361
    -4.4653  -4.4370  -0.0962  -0.0759   0.2139   0.2355   1.0110   1.0194
     1.4671   1.6631   2.2218   2.3854   2.4037   2.4271   2.8087   2.8186
     2.8240   2.8429   3.1891   3.2478   3.3130   3.3739   3.4485   3.6475
     3.8966   4.1698   6.6373   6.7018   6.7102   6.7218   7.0887   7.1847
     7.1875   7.2436

          k =-1.0162-0.2579 0.1485 ( 36506 PWs)   bands (ev):

   -44.1383 -44.1383 -22.2458 -22.2458 -22.2341 -22.2341 -22.0671 -22.0671
    -6.7370  -6.7223  -6.1880  -6.1805  -6.0997  -6.0954  -5.2347  -5.2344
    -4.4637  -4.4437  -0.1915  -0.1854   0.4151   0.4229   1.0063   1.0183
     1.4609   1.5927   2.0458   2.1652   2.3557   2.3958   2.6659   2.6768
     2.9311   3.0456   3.0864   3.2001   3.5457   3.5624   3.5960   3.7282
     4.0571   4.2032   6.1765   6.1968   6.5476   6.6244   7.1910   7.2026
     7.4006   7.4667

          k =-1.0162-0.2579-0.2971 ( 36528 PWs)   bands (ev):

   -44.1383 -44.1383 -22.2458 -22.2458 -22.2341 -22.2341 -22.0671 -22.0671
    -6.7282  -6.7282  -6.2012  -6.2012  -6.0819  -6.0819  -5.2327  -5.2327
    -4.4564  -4.4564  -0.2507  -0.2507   0.6164   0.6164   0.9697   0.9697
     1.5104   1.5104   1.8794   1.8794   2.3583   2.3583   2.7625   2.7625
     2.8496   2.8496   3.1818   3.1818   3.6354   3.6354   3.7963   3.7963
     4.3174   4.3174   5.7920   5.7920   6.4934   6.4934   7.2129   7.2129
     7.5287   7.5287

          k = 0.5081 0.0000 0.0000 ( 36503 PWs)   bands (ev):

   -44.1396 -44.1396 -22.2526 -22.2526 -22.2015 -22.2015 -22.0710 -22.0709
    -7.5970  -7.3531  -6.9047  -6.7518  -5.9319  -5.2500  -5.0149  -4.6427
    -4.6092  -4.4673   0.1780   0.5244   0.6692   1.1487   1.1669   1.2451
     1.6274   1.7003   1.8365   2.0957   2.1491   2.3294   2.5188   3.4061
     3.5400   3.5421   3.5888   3.5935   3.7805   3.9087   3.9540   4.2431
     4.3418   4.9244   5.7492   6.1011   6.2567   6.5665   6.5795   7.0514
     7.4560   7.5790

          k = 0.5081 0.0000 0.1485 ( 36453 PWs)   bands (ev):

   -44.1396 -44.1396 -22.2526 -22.2526 -22.2015 -22.2015 -22.0710 -22.0709
    -7.5703  -7.4032  -6.8677  -6.7654  -5.8667  -5.4375  -4.8640  -4.6355
    -4.6196  -4.4906   0.2205   0.5135   0.7665   0.9254   1.2285   1.2564
     1.3722   1.5503   2.0067   2.1058   2.3433   2.4396   2.8382   3.4097
     3.4681   3.4800   3.5227   3.6604   3.7329   3.8372   3.8412   4.2945
     4.3039   4.4633   6.1955   6.2551   6.4171   6.5583   6.6441   6.9156
     7.3116   7.5361

          k = 0.5081 0.0000-0.2971 ( 36452 PWs)   bands (ev):

   -44.1396 -44.1396 -22.2526 -22.2526 -22.2015 -22.2015 -22.0709 -22.0709
    -7.4969  -7.4969  -6.8065  -6.8065  -5.6862  -5.6862  -4.7143  -4.7143
    -4.5553  -4.5553   0.3613   0.3613   0.9882   0.9882   1.0198   1.0198
     1.4125   1.4125   2.0590   2.0590   2.6644   2.6644   3.1786   3.1786
     3.4031   3.4031   3.5777   3.5777   3.7703   3.7703   3.8701   3.8701
     4.3454   4.3454   6.4602   6.4602   6.5320   6.5320   6.8892   6.8892
     7.2021   7.2021

          k = 0.7622 0.0645 0.0000 ( 36505 PWs)   bands (ev):

   -44.1387 -44.1387 -22.2479 -22.2479 -22.2245 -22.2245 -22.0683 -22.0682
    -7.0710  -6.8041  -6.7539  -6.5851  -5.7328  -5.4642  -5.1672  -5.1372
    -4.5124  -4.4970  -0.1155   0.0172   0.3414   0.9470   0.9817   1.3020
     1.4529   1.5633   1.9649   2.1973   2.2443   2.2637   2.3747   2.7798
     2.9440   3.3033   3.3674   3.5111   3.5543   3.6580   3.6980   3.7803
     3.8331   4.6018   6.0596   6.3884   6.5057   6.9021   6.9545   6.9625
     7.3749   7.6660

          k = 0.7622 0.0645 0.1485 ( 36509 PWs)   bands (ev):

   -44.1387 -44.1387 -22.2479 -22.2479 -22.2245 -22.2245 -22.0683 -22.0682
    -7.0472  -6.8853  -6.6892  -6.5964  -5.6913  -5.5001  -5.1677  -5.1445
    -4.5077  -4.4972  -0.0910   0.1557   0.2324   0.8176   0.9922   1.2558
     1.4667   1.6051   1.9778   2.0073   2.0711   2.6005   2.6931   2.8784
     2.9022   3.0559   3.3163   3.3776   3.5612   3.6023   3.6801   3.9667
     3.9810   4.4698   5.9049   6.3845   6.7282   6.8445   6.9883   7.0650
     7.1198   7.6632

          k = 0.7622 0.0645-0.2971 ( 36472 PWs)   bands (ev):

   -44.1387 -44.1387 -22.2479 -22.2479 -22.2245 -22.2245 -22.0683 -22.0683
    -6.9803  -6.9803  -6.6306  -6.6306  -5.5933  -5.5933  -5.1595  -5.1595
    -4.5003  -4.5003   0.0367   0.0367   0.4732   0.4732   1.1020   1.1020
     1.5540   1.5540   1.9532   1.9532   2.4036   2.4036   2.8405   2.8405
     2.9540   2.9540   3.3394   3.3394   3.5945   3.5945   3.9359   3.9359
     4.0666   4.0666   6.3146   6.3146   6.4990   6.4990   7.0085   7.0085
     7.5443   7.5443

          k = 1.0162 0.1290 0.0000 ( 36514 PWs)   bands (ev):

   -44.1383 -44.1383 -22.2458 -22.2458 -22.2341 -22.2341 -22.0671 -22.0671
    -6.7414  -6.7208  -6.1600  -6.1490  -6.1287  -6.1234  -5.2367  -5.2361
    -4.4653  -4.4370  -0.1019  -0.0701   0.2108   0.2387   1.0034   1.0279
     1.4737   1.6532   2.2186   2.3902   2.4052   2.4219   2.7798   2.8192
     2.8379   2.8728   3.2091   3.2210   3.2947   3.3602   3.4966   3.6290
     3.8804   4.1855   6.6317   6.6871   6.7185   6.7367   7.1120   7.1851
     7.1895   7.2249

          k = 1.0162 0.1290 0.1485 ( 36524 PWs)   bands (ev):

   -44.1383 -44.1383 -22.2458 -22.2458 -22.2341 -22.2341 -22.0671 -22.0671
    -6.7370  -6.7223  -6.1879  -6.1806  -6.0997  -6.0954  -5.2347  -5.2344
    -4.4637  -4.4437  -0.1939  -0.1833   0.4164   0.4221   1.0059   1.0189
     1.4669   1.5865   2.0562   2.1481   2.3581   2.3935   2.6361   2.7130
     2.9337   3.0578   3.0836   3.1903   3.5189   3.5676   3.6265   3.7208
     4.0355   4.2225   6.1711   6.2069   6.5441   6.6269   7.1943   7.2023
     7.4108   7.4579

          k = 1.0162 0.1290-0.2971 ( 36516 PWs)   bands (ev):

   -44.1383 -44.1383 -22.2458 -22.2458 -22.2341 -22.2341 -22.0671 -22.0671
    -6.7282  -6.7282  -6.2012  -6.2012  -6.0819  -6.0819  -5.2327  -5.2327
    -4.4564  -4.4564  -0.2508  -0.2508   0.6167   0.6167   0.9695   0.9695
     1.5116   1.5116   1.8802   1.8802   2.3511   2.3511   2.7440   2.7440
     2.8844   2.8844   3.1695   3.1695   3.6374   3.6374   3.7949   3.7949
     4.3179   4.3179   5.7947   5.7947   6.4927   6.4927   7.2140   7.2140
     7.5299   7.5299

          k =-0.7622-0.3224 0.0000 ( 36511 PWs)   bands (ev):

   -44.1387 -44.1387 -22.2479 -22.2479 -22.2245 -22.2245 -22.0683 -22.0682
    -7.0547  -6.8015  -6.7608  -6.5975  -5.7322  -5.4700  -5.1661  -5.1395
    -4.5311  -4.4763  -0.1373   0.0243   0.3152   0.9169   0.9721   1.2720
     1.5037   1.6662   2.0745   2.1491   2.2245   2.2890   2.4594   2.8407
     2.9650   3.2156   3.3400   3.4788   3.5002   3.6274   3.6777   3.7358
     3.9440   4.5297   6.0661   6.4269   6.4992   6.8241   6.9711   7.0616
     7.3373   7.5947

          k =-0.7622-0.3224 0.1485 ( 36492 PWs)   bands (ev):

   -44.1387 -44.1387 -22.2479 -22.2479 -22.2245 -22.2245 -22.0683 -22.0682
    -7.0318  -6.8783  -6.6999  -6.6095  -5.6902  -5.5031  -5.1684  -5.1470
    -4.5208  -4.4827  -0.1111   0.1624   0.2126   0.8416   0.9342   1.2231
     1.5268   1.6178   1.9769   2.1352   2.1896   2.5918   2.6764   2.9069
     2.9307   3.0691   3.2260   3.3504   3.4746   3.5902   3.7461   3.8790
     3.9968   4.4818   5.8481   6.4437   6.6820   6.8392   6.9821   7.0723
     7.1737   7.5939

          k =-0.7622-0.3224-0.2971 ( 36508 PWs)   bands (ev):

   -44.1387 -44.1387 -22.2479 -22.2479 -22.2245 -22.2245 -22.0683 -22.0683
    -6.9680  -6.9680  -6.6443  -6.6443  -5.5927  -5.5927  -5.1620  -5.1620
    -4.4999  -4.4999   0.0168   0.0168   0.4899   0.4899   1.0571   1.0571
     1.5677   1.5677   2.0694   2.0694   2.4426   2.4426   2.8318   2.8318
     3.0010   3.0010   3.2116   3.2116   3.5949   3.5949   3.9163   3.9163
     4.0874   4.0874   6.2539   6.2539   6.4985   6.4985   7.0883   7.0883
     7.4676   7.4676

          k =-0.5081-0.2579 0.0000 ( 36480 PWs)   bands (ev):

   -44.1396 -44.1396 -22.2526 -22.2526 -22.2015 -22.2015 -22.0710 -22.0709
    -7.5879  -7.3515  -6.9035  -6.7586  -5.9428  -5.2512  -5.0237  -4.6583
    -4.5895  -4.4689   0.1616   0.5391   0.6737   1.0976   1.1812   1.4151
     1.6422   1.7346   1.8837   2.0773   2.1478   2.3770   2.5110   3.3955
     3.4338   3.5240   3.5565   3.6627   3.7175   3.7625   4.0076   4.1213
     4.3298   4.9469   5.7309   6.1296   6.1941   6.6996   6.7550   6.9278
     7.4185   7.5113

          k =-0.5081-0.2579 0.1485 ( 36485 PWs)   bands (ev):

   -44.1396 -44.1396 -22.2526 -22.2526 -22.2015 -22.2015 -22.0710 -22.0709
    -7.5617  -7.3993  -6.8697  -6.7723  -5.8753  -5.4394  -4.8767  -4.6320
    -4.6218  -4.4856   0.2097   0.5351   0.7610   0.9063   1.1916   1.3232
     1.4964   1.6358   2.0009   2.0710   2.3484   2.5089   2.8408   3.3195
     3.4473   3.4993   3.5159   3.6317   3.6414   3.7657   3.8913   4.1616
     4.2644   4.5004   6.2053   6.2420   6.3574   6.7023   6.7850   6.8112
     7.2484   7.4956

          k =-0.5081-0.2579-0.2971 ( 36478 PWs)   bands (ev):

   -44.1396 -44.1396 -22.2526 -22.2526 -22.2015 -22.2015 -22.0709 -22.0709
    -7.4900  -7.4900  -6.8123  -6.8123  -5.6907  -5.6907  -4.7264  -4.7264
    -4.5466  -4.5466   0.3646   0.3646   0.9813   0.9813   1.0104   1.0104
     1.5398   1.5398   2.0416   2.0416   2.7034   2.7034   3.1662   3.1662
     3.3778   3.3778   3.5372   3.5372   3.6977   3.6977   3.8929   3.8929
     4.2837   4.2837   6.4109   6.4109   6.6456   6.6456   6.8304   6.8304
     7.2068   7.2068

          k =-0.2541-0.1934 0.0000 ( 36410 PWs)   bands (ev):

   -44.1405 -44.1405 -22.2573 -22.2573 -22.1784 -22.1784 -22.0737 -22.0736
    -7.9466  -7.7019  -7.0581  -6.8796  -6.1235  -5.3684  -4.8460  -4.7672
    -4.6996  -3.9681   0.3752   0.8917   1.0024   1.0549   1.2858   1.5154
     1.6288   1.7208   1.8232   2.5534   2.6030   3.2245   3.3053   3.6811
     3.7249   3.7312   3.8402   3.8721   3.9111   4.1937   4.3177   4.3389
     4.3600   4.6186   5.9486   6.0173   6.2553   6.5402   6.5797   6.7224
     7.0070   7.1327

          k =-0.2541-0.1934 0.1485 ( 36427 PWs)   bands (ev):

   -44.1405 -44.1405 -22.2573 -22.2573 -22.1784 -22.1784 -22.0737 -22.0736
    -7.9191  -7.7501  -7.0175  -6.8963  -6.0537  -5.5668  -4.7845  -4.7146
    -4.6044  -4.0555   0.4383   0.8713   0.9336   1.0511   1.2393   1.2973
     1.7366   1.8030   2.1631   2.5525   2.5882   2.9455   3.4095   3.4469
     3.5399   3.7341   3.8324   3.9054   4.0049   4.1655   4.3379   4.3496
     4.6664   4.7839   5.8697   6.0110   6.1398   6.3168   6.4134   6.7820
     7.1727   7.2546

          k =-0.2541-0.1934-0.2971 ( 36422 PWs)   bands (ev):

   -44.1405 -44.1405 -22.2573 -22.2573 -22.1784 -22.1784 -22.0736 -22.0736
    -7.8439  -7.8439  -6.9460  -6.9460  -5.8529  -5.8529  -4.7478  -4.7478
    -4.2922  -4.2922   0.6206   0.6206   1.0477   1.0477   1.1517   1.1517
     1.8887   1.8887   2.4841   2.4841   2.6570   2.6570   3.2567   3.2567
     3.6676   3.6676   3.8371   3.8371   4.1250   4.1250   4.3492   4.3492
     4.9719   4.9719   5.7637   5.7637   6.1827   6.1827   6.5090   6.5090
     7.3639   7.3639

          k = 0.0000-0.1290 0.0000 ( 36417 PWs)   bands (ev):

   -44.1409 -44.1408 -22.2593 -22.2593 -22.1688 -22.1688 -22.0748 -22.0747
    -8.0715  -7.8218  -7.1259  -6.9270  -6.1794  -5.4152  -4.8216  -4.7953
    -4.7457  -3.7979   0.2850   0.7732   0.8504   1.1570   1.3633   1.5672
     2.0261   2.1924   2.2798   2.7924   2.9228   2.9994   3.3104   3.3723
     3.7537   3.8794   3.9201   4.0127   4.2864   4.3182   4.3733   4.7123
     4.7304   5.3651   5.6562   5.9015   5.9468   5.9819   6.0407   6.7884
     7.0498   7.2295

          k = 0.0000-0.1290 0.1485 ( 36419 PWs)   bands (ev):

   -44.1409 -44.1408 -22.2593 -22.2593 -22.1688 -22.1688 -22.0748 -22.0747
    -8.0433  -7.8709  -7.0808  -6.9453  -6.1110  -5.6180  -4.8097  -4.7601
    -4.5634  -3.9092   0.3600   0.8820   0.9211   0.9642   1.1235   1.8776
     2.0417   2.0458   2.1616   2.8189   2.9091   3.0740   3.3770   3.4752
     3.7572   3.9002   3.9330   3.9994   4.2433   4.3167   4.3867   4.7075
     4.7127   4.9084   5.8549   5.9177   5.9457   6.1387   6.3811   6.6218
     6.8649   7.1139

          k = 0.0000-0.1290-0.2971 ( 36464 PWs)   bands (ev):

   -44.1409 -44.1409 -22.2593 -22.2593 -22.1688 -22.1688 -22.0747 -22.0747
    -7.9667  -7.9667  -7.0007  -7.0007  -5.9103  -5.9103  -4.7848  -4.7848
    -4.1986  -4.1986   0.5892   0.5892   0.9846   0.9846   1.3495   1.3495
     2.0985   2.0985   2.5989   2.5989   2.8700   2.8700   3.5719   3.5719
     3.8579   3.8579   4.0766   4.0766   4.2394   4.2394   4.4104   4.4104
     4.7019   4.7019   5.9172   5.9172   6.2376   6.2376   6.4927   6.4927
     6.8417   6.8417

          k = 1.0162 0.0000 0.0000 ( 36499 PWs)   bands (ev):

   -44.1383 -44.1383 -22.2458 -22.2458 -22.2341 -22.2341 -22.0671 -22.0671
    -6.7414  -6.7208  -6.1598  -6.1492  -6.1287  -6.1234  -5.2367  -5.2362
    -4.4653  -4.4370  -0.1060  -0.0659   0.2082   0.2413   0.9993   1.0328
     1.4813   1.6424   2.2155   2.3978   2.4069   2.4139   2.7702   2.8234
     2.8294   2.9024   3.2046   3.2349   3.2721   3.3405   3.5674   3.5812
     3.8660   4.1997   6.6269   6.6784   6.7261   6.7456   7.1520   7.1856
     7.1895   7.1914

          k = 1.0162 0.0000 0.1485 ( 36485 PWs)   bands (ev):

   -44.1383 -44.1383 -22.2458 -22.2458 -22.2341 -22.2341 -22.0671 -22.0671
    -6.7370  -6.7223  -6.1879  -6.1806  -6.0997  -6.0955  -5.2347  -5.2343
    -4.4637  -4.4437  -0.1955  -0.1819   0.4184   0.4207   1.0057   1.0193
     1.4738   1.5795   2.0718   2.1260   2.3630   2.3884   2.6251   2.7288
     2.9406   3.0628   3.0878   3.1780   3.5041   3.5681   3.6545   3.7088
     4.0173   4.2382   6.1681   6.2146   6.5409   6.6292   7.1994   7.2002
     7.4348   7.4353

          k = 1.0162 0.0000-0.2971 ( 36514 PWs)   bands (ev):

   -44.1383 -44.1383 -22.2458 -22.2458 -22.2341 -22.2341 -22.0671 -22.0671
    -6.7282  -6.7282  -6.2012  -6.2012  -6.0819  -6.0819  -5.2327  -5.2327
    -4.4564  -4.4564  -0.2510  -0.2510   0.6171   0.6171   0.9693   0.9693
     1.5128   1.5128   1.8810   1.8810   2.3441   2.3441   2.7320   2.7320
     2.9143   2.9143   3.1555   3.1555   3.6394   3.6394   3.7936   3.7936
     4.3184   4.3184   5.7974   5.7974   6.4919   6.4919   7.2150   7.2150
     7.5310   7.5310

          k = 1.2703 0.0645 0.0000 ( 36468 PWs)   bands (ev):

   -44.1387 -44.1387 -22.2479 -22.2479 -22.2245 -22.2245 -22.0683 -22.0682
    -7.0473  -6.8005  -6.7646  -6.6023  -5.7320  -5.4725  -5.1655  -5.1406
    -4.5354  -4.4713  -0.1461   0.0275   0.3042   0.8976   0.9824   1.2614
     1.5063   1.7148   2.1340   2.1562   2.2303   2.3041   2.4247   2.8695
     2.9680   3.1865   3.3730   3.4765   3.5044   3.5986   3.6037   3.6941
     4.0362   4.4863   6.0688   6.4247   6.5287   6.7646   7.0029   7.1245
     7.3019   7.5823

          k = 1.2703 0.0645 0.1485 ( 36490 PWs)   bands (ev):

   -44.1387 -44.1387 -22.2479 -22.2479 -22.2245 -22.2245 -22.0683 -22.0682
    -7.0249  -6.8755  -6.7049  -6.6149  -5.6898  -5.5043  -5.1687  -5.1480
    -4.5238  -4.4791  -0.1192   0.1672   0.2024   0.8499   0.9175   1.2109
     1.5393   1.6308   1.9755   2.1999   2.2425   2.5980   2.6350   2.9223
     2.9369   3.0990   3.1987   3.3200   3.4771   3.5418   3.7656   3.8341
     4.0237   4.4845   5.8269   6.4744   6.6525   6.8356   6.9614   7.1304
     7.1808   7.5487

          k = 1.2703 0.0645-0.2971 ( 36480 PWs)   bands (ev):

   -44.1387 -44.1387 -22.2479 -22.2479 -22.2245 -22.2245 -22.0683 -22.0683
    -6.9625  -6.9625  -6.6503  -6.6503  -5.5925  -5.5925  -5.1630  -5.1630
    -4.4997  -4.4997   0.0089   0.0089   0.4963   0.4963   1.0425   1.0425
     1.5740   1.5740   2.1034   2.1034   2.4785   2.4785   2.8298   2.8298
     3.0204   3.0204   3.1560   3.1560   3.5890   3.5890   3.8879   3.8879
     4.1148   4.1148   6.2321   6.2321   6.4970   6.4970   7.1290   7.1290
     7.4228   7.4228

          k =-0.5081-0.3869 0.0000 ( 36463 PWs)   bands (ev):

   -44.1396 -44.1396 -22.2526 -22.2526 -22.2015 -22.2015 -22.0710 -22.0709
    -7.5812  -7.3503  -6.9036  -6.7625  -5.9507  -5.2520  -5.0300  -4.6641
    -4.5807  -4.4701   0.1505   0.5504   0.6703   1.0908   1.1910   1.5384
     1.6519   1.7510   1.9192   2.0573   2.1734   2.3790   2.5013   3.2884
     3.4616   3.5132   3.5381   3.6372   3.7058   3.7268   3.9431   4.1198
     4.3172   4.9592   5.7209   6.0436   6.2612   6.8059   6.8422   6.8852
     7.3608   7.4842

          k =-0.5081-0.3869 0.1485 ( 36477 PWs)   bands (ev):

   -44.1396 -44.1396 -22.2526 -22.2526 -22.2015 -22.2015 -22.0710 -22.0709
    -7.5554  -7.3965  -6.8718  -6.7765  -5.8815  -5.4407  -4.8854  -4.6291
    -4.6240  -4.4822   0.2024   0.5497   0.7562   0.8928   1.1917   1.3426
     1.6129   1.7085   1.9766   2.0470   2.3772   2.5222   2.8415   3.2288
     3.4641   3.4669   3.5072   3.5595   3.6534   3.7448   3.9033   4.1164
     4.2154   4.5202   6.1568   6.2746   6.3313   6.7229   6.8059   6.9205
     7.1826   7.4848

          k =-0.5081-0.3869-0.2971 ( 36492 PWs)   bands (ev):

   -44.1396 -44.1396 -22.2526 -22.2526 -22.2015 -22.2015 -22.0709 -22.0709
    -7.4850  -7.4850  -6.8165  -6.8165  -5.6938  -5.6938  -4.7343  -4.7343
    -4.5410  -4.5410   0.3666   0.3666   0.9748   0.9748   1.0078   1.0078
     1.6505   1.6505   2.0126   2.0126   2.7455   2.7455   3.1084   3.1084
     3.3682   3.3682   3.5002   3.5002   3.6815   3.6815   3.9021   3.9021
     4.2462   4.2462   6.3784   6.3784   6.6910   6.6910   6.8114   6.8114
     7.2301   7.2301

          k =-0.2541-0.3224 0.0000 ( 36485 PWs)   bands (ev):

   -44.1405 -44.1405 -22.2573 -22.2573 -22.1784 -22.1784 -22.0737 -22.0736
    -7.9403  -7.7007  -7.0527  -6.8827  -6.1407  -5.3728  -4.8636  -4.7657
    -4.6883  -3.9693   0.4005   0.9015   1.0457   1.1189   1.3338   1.5865
     1.6660   1.7231   1.8596   2.4850   2.5599   3.2213   3.4023   3.5422
     3.6062   3.7075   3.7079   3.8526   3.9546   4.1353   4.1771   4.2813
     4.3195   4.6567   6.0392   6.0545   6.3228   6.5583   6.5941   6.7950
     6.9288   7.0552

          k =-0.2541-0.3224 0.1485 ( 36445 PWs)   bands (ev):

   -44.1405 -44.1405 -22.2573 -22.2573 -22.1784 -22.1784 -22.0737 -22.0736
    -7.9131  -7.7474  -7.0149  -6.8992  -6.0680  -5.5719  -4.8032  -4.7082
    -4.5983  -4.0556   0.4626   0.8768   0.9450   1.1694   1.3105   1.3257
     1.7575   1.8101   2.2132   2.4880   2.5493   2.9491   3.4117   3.4996
     3.5329   3.5667   3.6566   3.9033   3.9330   4.1066   4.2531   4.3093
     4.6689   4.7959   5.8660   6.0412   6.1430   6.3691   6.5116   6.7668
     7.1411   7.2379

          k =-0.2541-0.3224-0.2971 ( 36442 PWs)   bands (ev):

   -44.1405 -44.1405 -22.2573 -22.2573 -22.1784 -22.1784 -22.0736 -22.0736
    -7.8391  -7.8391  -6.9474  -6.9474  -5.8618  -5.8618  -4.7533  -4.7533
    -4.2899  -4.2899   0.6400   0.6400   1.0710   1.0710   1.2422   1.2422
     1.9002   1.9002   2.4653   2.4653   2.6562   2.6562   3.2681   3.2681
     3.5345   3.5345   3.8031   3.8031   4.0670   4.0670   4.2884   4.2884
     4.9918   4.9918   5.7309   5.7309   6.1890   6.1890   6.5866   6.5866
     7.3509   7.3509

          k = 0.0000-0.2579 0.0000 ( 36445 PWs)   bands (ev):

   -44.1409 -44.1408 -22.2593 -22.2593 -22.1688 -22.1688 -22.0748 -22.0747
    -8.0657  -7.8207  -7.1187  -6.9298  -6.1981  -5.4209  -4.8488  -4.7872
    -4.7316  -3.7990   0.3179   0.7825   0.9595   1.2083   1.3896   1.6339
     2.0261   2.1910   2.2770   2.8100   2.9292   3.0142   3.2816   3.4789
     3.5362   3.6593   3.8519   3.9557   4.1578   4.2417   4.3187   4.7006
     4.7101   5.3268   5.7057   5.9630   6.0009   6.0280   6.1264   6.7958
     7.0498   7.1255

          k = 0.0000-0.2579 0.1485 ( 36452 PWs)   bands (ev):

   -44.1409 -44.1408 -22.2593 -22.2593 -22.1688 -22.1688 -22.0748 -22.0747
    -8.0380  -7.8686  -7.0764  -6.9477  -6.1270  -5.6244  -4.8272  -4.7524
    -4.5598  -3.9094   0.3923   0.9301   0.9710   1.0257   1.1785   1.8896
     2.0457   2.0844   2.1607   2.8346   2.9169   3.0796   3.3350   3.4807
     3.6570   3.6747   3.9071   3.9082   4.1916   4.2343   4.2648   4.6937
     4.7056   4.9022   5.8973   5.9743   6.0138   6.1532   6.4060   6.6210
     6.8675   7.0472

          k = 0.0000-0.2579-0.2971 ( 36454 PWs)   bands (ev):

   -44.1409 -44.1409 -22.2593 -22.2593 -22.1688 -22.1688 -22.0747 -22.0747
    -7.9624  -7.9624  -7.0009  -7.0009  -5.9207  -5.9207  -4.7894  -4.7894
    -4.1972  -4.1972   0.6241   0.6241   1.0666   1.0666   1.3645   1.3645
     2.0982   2.0982   2.6276   2.6276   2.8816   2.8816   3.4635   3.4635
     3.7784   3.7784   4.0563   4.0563   4.1189   4.1189   4.3712   4.3712
     4.6956   4.6956   5.9556   5.9556   6.2694   6.2694   6.5005   6.5005
     6.8128   6.8128

          k = 1.5243 0.0000 0.0000 ( 36439 PWs)   bands (ev):

   -44.1396 -44.1396 -22.2526 -22.2526 -22.2015 -22.2015 -22.0710 -22.0709
    -7.5784  -7.3498  -6.9039  -6.7638  -5.9540  -5.2523  -5.0326  -4.6659
    -4.5776  -4.4706   0.1460   0.5557   0.6670   1.0908   1.1950   1.6062
     1.6750   1.7196   1.9346   2.0478   2.2146   2.3511   2.4962   3.2492
     3.4693   3.4774   3.5438   3.6346   3.7048   3.7504   3.8649   4.1429
     4.3114   4.9633   5.7173   6.0066   6.2924   6.8062   6.8552   6.9463
     7.3199   7.5254

          k = 1.5243 0.0000 0.1485 ( 36476 PWs)   bands (ev):

   -44.1396 -44.1396 -22.2526 -22.2526 -22.2015 -22.2015 -22.0710 -22.0709
    -7.5528  -7.3954  -6.8729  -6.7781  -5.8841  -5.4413  -4.8889  -4.6273
    -4.6256  -4.4808   0.1994   0.5556   0.7540   0.8871   1.1934   1.3494
     1.6954   1.7179   1.9697   2.0233   2.4126   2.5014   2.8408   3.1949
     3.4127   3.4785   3.5091   3.5609   3.6705   3.7295   3.8797   4.1371
     4.1761   4.5280   6.1316   6.2901   6.3248   6.6934   6.8445   6.9914
     7.1375   7.5031

          k = 1.5243 0.0000-0.2971 ( 36508 PWs)   bands (ev):

   -44.1396 -44.1396 -22.2526 -22.2526 -22.2015 -22.2015 -22.0709 -22.0709
    -7.4829  -7.4829  -6.8183  -6.8183  -5.6951  -5.6951  -4.7375  -4.7375
    -4.5388  -4.5388   0.3674   0.3674   0.9723   0.9723   1.0070   1.0070
     1.7088   1.7088   1.9898   1.9898   2.7710   2.7710   3.0644   3.0644
     3.3695   3.3695   3.4889   3.4889   3.6772   3.6772   3.9024   3.9024
     4.2336   4.2336   6.3653   6.3653   6.6914   6.6914   6.8173   6.8173
     7.2484   7.2484

          k =-0.2541-0.4514 0.0000 ( 36444 PWs)   bands (ev):

   -44.1405 -44.1405 -22.2573 -22.2573 -22.1784 -22.1784 -22.0737 -22.0736
    -7.9357  -7.6999  -7.0494  -6.8841  -6.1532  -5.3758  -4.8755  -4.7625
    -4.6830  -3.9702   0.4123   0.9110   1.0365   1.2423   1.3424   1.6697
     1.6930   1.7231   1.8958   2.4110   2.4881   3.2440   3.3933   3.4724
     3.4747   3.7035   3.7670   3.8532   3.9093   4.0780   4.1038   4.2166
     4.3153   4.6809   6.0736   6.1153   6.3487   6.5729   6.6171   6.8387
     6.8393   7.0242

          k =-0.2541-0.4514 0.1485 ( 36461 PWs)   bands (ev):

   -44.1405 -44.1405 -22.2573 -22.2573 -22.1784 -22.1784 -22.0737 -22.0736
    -7.9088  -7.7455  -7.0135  -6.9008  -6.0783  -5.5754  -4.8148  -4.7049
    -4.5945  -4.0557   0.4740   0.8832   0.9486   1.2709   1.3371   1.3901
     1.7877   1.8137   2.2646   2.4172   2.4724   2.9684   3.3473   3.3941
     3.5138   3.5389   3.7383   3.8758   3.9057   3.9727   4.2315   4.2830
     4.6757   4.8020   5.8638   6.0573   6.1574   6.3756   6.5786   6.7419
     7.1375   7.2243

          k =-0.2541-0.4514-0.2971 ( 36490 PWs)   bands (ev):

   -44.1405 -44.1405 -22.2573 -22.2573 -22.1784 -22.1784 -22.0736 -22.0736
    -7.8357  -7.8357  -6.9485  -6.9485  -5.8680  -5.8680  -4.7572  -4.7572
    -4.2882  -4.2882   0.6490   0.6490   1.0801   1.0801   1.3363   1.3363
     1.9134   1.9134   2.4247   2.4247   2.6584   2.6584   3.2565   3.2565
     3.4212   3.4212   3.8566   3.8566   3.9892   3.9892   4.2582   4.2582
     5.0056   5.0056   5.7110   5.7110   6.1792   6.1792   6.6357   6.6357
     7.3455   7.3455

          k = 0.0000-0.3869 0.0000 ( 36477 PWs)   bands (ev):

   -44.1409 -44.1408 -22.2593 -22.2593 -22.1688 -22.1688 -22.0748 -22.0747
    -8.0599  -7.8197  -7.1121  -6.9315  -6.2174  -5.4265  -4.8699  -4.7771
    -4.7255  -3.8001   0.3400   0.7930   1.1072   1.2703   1.4142   1.7072
     2.0260   2.1896   2.2761   2.8290   2.9350   3.0418   3.1604   3.2371
     3.5194   3.6361   3.8239   3.9572   4.0176   4.0657   4.3191   4.6711
     4.7081   5.3036   5.7555   6.0201   6.0387   6.0791   6.1840   6.7506
     7.0497   7.0606

          k = 0.0000-0.3869 0.1485 ( 36452 PWs)   bands (ev):

   -44.1409 -44.1408 -22.2593 -22.2593 -22.1688 -22.1688 -22.0748 -22.0747
    -8.0325  -7.8662  -7.0726  -6.9493  -6.1433  -5.6307  -4.8418  -4.7473
    -4.5566  -3.9097   0.4129   0.9493   1.0052   1.1681   1.2534   1.9037
     2.0456   2.1294   2.1598   2.8514   2.9245   3.0374   3.1820   3.3337
     3.5201   3.7431   3.8808   3.9253   4.0620   4.1055   4.2245   4.6767
     4.7028   4.9009   5.9478   6.0204   6.0500   6.1681   6.4196   6.5876
     6.8701   6.9958

          k = 0.0000-0.3869-0.2971 ( 36454 PWs)   bands (ev):

   -44.1409 -44.1409 -22.2593 -22.2593 -22.1688 -22.1688 -22.0747 -22.0747
    -7.9581  -7.9581  -7.0010  -7.0010  -5.9311  -5.9311  -4.7940  -4.7940
    -4.1957  -4.1957   0.6450   0.6450   1.1847   1.1847   1.3822   1.3822
     2.0979   2.0979   2.6521   2.6521   2.8936   2.8936   3.2243   3.2243
     3.8269   3.8269   4.0112   4.0112   4.0354   4.0354   4.3352   4.3352
     4.6898   4.6898   5.9702   5.9702   6.2981   6.2981   6.5086   6.5086
     6.7746   6.7746

          k =-2.0325 0.0000 0.0000 ( 36452 PWs)   bands (ev):

   -44.1409 -44.1408 -22.2593 -22.2593 -22.1688 -22.1688 -22.0748 -22.0747
    -8.0575  -7.8192  -7.1096  -6.9318  -6.2255  -5.4287  -4.8777  -4.7723
    -4.7245  -3.8006   0.3460   0.7977   1.2332   1.2424   1.4238   1.7512
     2.0260   2.1891   2.2763   2.8373   2.9372   3.0525   3.0578   3.1184
     3.5010   3.7930   3.8122   3.8718   3.9597   3.9859   4.3192   4.6590
     4.7073   5.2962   5.7758   6.0281   6.0786   6.0952   6.2020   6.7088
     7.0485   7.0497

          k =-2.0325 0.0000 0.1485 ( 36456 PWs)   bands (ev):

   -44.1409 -44.1409 -22.2593 -22.2593 -22.1688 -22.1688 -22.0748 -22.0747
    -8.0302  -7.8652  -7.0712  -6.9497  -6.1501  -5.6332  -4.8473  -4.7455
    -4.5553  -3.9097   0.4181   0.9573   1.0179   1.2517   1.2828   1.9102
     2.0456   2.1520   2.1594   2.8588   2.9275   2.9770   3.0637   3.3113
     3.4921   3.8438   3.8698   3.9431   3.9714   4.0150   4.2202   4.6698
     4.7017   4.9009   5.9719   6.0417   6.0560   6.1743   6.4224   6.5616
     6.8712   6.9810

          k =-2.0325 0.0000-0.2971 ( 36460 PWs)   bands (ev):

   -44.1409 -44.1409 -22.2593 -22.2593 -22.1688 -22.1688 -22.0747 -22.0747
    -7.9563  -7.9563  -7.0011  -7.0011  -5.9354  -5.9354  -4.7960  -4.7960
    -4.1951  -4.1951   0.6504   0.6504   1.2461   1.2461   1.3913   1.3913
     2.0977   2.0977   2.6571   2.6571   2.8987   2.8987   3.1141   3.1141
     3.8978   3.8978   3.9263   3.9263   4.0266   4.0266   4.3226   4.3226
     4.6875   4.6875   5.9719   5.9719   6.3086   6.3086   6.5121   6.5121
     6.7576   6.7576

     the Fermi energy is     5.6122 ev

!    total energy              =   -4240.94783851 Ry

     total all-electron energy =   -150287.641533 Ry
     estimated scf accuracy    <          2.2E-11 Ry
     smearing contrib. (-TS)   =       0.00000353 Ry
     internal energy E=F+TS    =   -4240.94784204 Ry

     The total energy is F=E-TS. E is the sum of the following terms:
     one-electron contribution =    -167.89822368 Ry
     hartree contribution      =     117.41393861 Ry
     xc contribution           =    -201.56211046 Ry
     ewald contribution        =    -221.37098665 Ry
     one-center paw contrib.   =   -3767.53045986 Ry

     convergence has been achieved in  18 iterations

     Forces acting on atoms (cartesian axes, Ry/au):

     atom    1 type  1   force =     0.00000000    0.01036117    0.00000000
     atom    2 type  1   force =     0.00000000   -0.01036117    0.00000000
     atom    3 type  2   force =     0.00000000   -0.00005664    0.00000000
     atom    4 type  2   force =     0.00000000    0.00005664    0.00000000
     atom    5 type  2   force =     0.00000000   -0.00237920   -0.00114656
     atom    6 type  2   force =     0.00000000    0.00237920    0.00114656
     atom    7 type  2   force =     0.00000000   -0.00237920    0.00114656
     atom    8 type  2   force =     0.00000000    0.00237920   -0.00114656
     atom    9 type  2   force =     0.00000000   -0.01743140   -0.01921828
     atom   10 type  2   force =     0.00000000    0.01743140    0.01921828
     atom   11 type  2   force =     0.00000000   -0.01743140    0.01921828
     atom   12 type  2   force =     0.00000000    0.01743140   -0.01921828

     Total force =     0.054179     Total SCF correction =     0.000007


     Computing stress (Cartesian axis) and pressure

          total   stress  (Ry/bohr**3)                   (kbar)     P=        4.45
   0.00003035   0.00000000   0.00000000            4.46        0.00        0.00
  -0.00000000   0.00001935   0.00000000           -0.00        2.85        0.00
   0.00000000   0.00000000   0.00004115            0.00        0.00        6.05

 
     init_run     :     35.44s CPU     36.22s WALL (       1 calls)
     electrons    :   1767.98s CPU   1786.79s WALL (       1 calls)
     forces       :      7.12s CPU      7.36s WALL (       1 calls)
     stress       :     43.33s CPU     43.98s WALL (       1 calls)

     Called by init_run:
     wfcinit      :     30.84s CPU     31.11s WALL (       1 calls)
     potinit      :      1.42s CPU      1.47s WALL (       1 calls)
     hinit0       :      1.55s CPU      1.73s WALL (       1 calls)

     Called by electrons:
     c_bands      :   1428.03s CPU   1435.81s WALL (      19 calls)
     sum_band     :    304.95s CPU    311.39s WALL (      19 calls)
     v_of_rho     :      8.76s CPU      9.41s WALL (      19 calls)
     newd         :     18.60s CPU     22.74s WALL (      19 calls)
     PAW_pot      :      6.97s CPU      6.98s WALL (      19 calls)
     mix_rho      :      1.59s CPU      1.64s WALL (      19 calls)

     Called by c_bands:
     init_us_2    :     14.45s CPU     14.52s WALL (    2583 calls)
     cegterg      :   1347.59s CPU   1354.61s WALL (    1197 calls)

     Called by *egterg:
     cdiaghg      :     28.08s CPU     28.21s WALL (    7994 calls)
     h_psi        :   1165.96s CPU   1172.78s WALL (    8120 calls)
     s_psi        :     51.44s CPU     51.51s WALL (    8120 calls)
     g_psi        :      2.31s CPU      2.33s WALL (    6860 calls)

     Called by h_psi:
     h_psi:calbec :     43.86s CPU     43.95s WALL (    8120 calls)
     vloc_psi     :   1066.54s CPU   1073.09s WALL (    8120 calls)
     add_vuspsi   :     51.35s CPU     51.45s WALL (    8120 calls)

     General routines
     calbec       :     57.90s CPU     58.03s WALL (    9632 calls)
     fft          :      7.90s CPU      8.29s WALL (     271 calls)
     ffts         :      0.20s CPU      0.21s WALL (      38 calls)
     fftw         :   1057.37s CPU   1063.77s WALL (  435872 calls)
     interpolate  :      0.65s CPU      0.66s WALL (      19 calls)
 
     Parallel routines
     fft_scatt_xy :    292.07s CPU    293.79s WALL (  436181 calls)
     fft_scatt_yz :    171.69s CPU    173.11s WALL (  436181 calls)
 
     PWSCF        :  30m54.23s CPU  31m20.85s WALL

 
   This run was terminated on:  15:17:40  19Nov2021            

=------------------------------------------------------------------------------=
   JOB DONE.
=------------------------------------------------------------------------------=
