
     Program PWSCF v.6.7MaX starts on 19Nov2021 at 14:46:19 

     This program is part of the open-source Quantum ESPRESSO suite
     for quantum simulation of materials; please cite
         "P. Giannozzi et al., J. Phys.:Condens. Matter 21 395502 (2009);
         "P. Giannozzi et al., J. Phys.:Condens. Matter 29 465901 (2017);
          URL http://www.quantum-espresso.org", 
     in publications or presentations arising from this work. More details at
     http://www.quantum-espresso.org/quote

     Parallel version (MPI), running on    10 processors

     MPI processes distributed on     1 nodes
     R & G space division:  proc/nbgrp/npool/nimage =      10
     Waiting for input...
     Reading input from standard input

     Current dimensions of program PWSCF are:
     Max number of different atomic species (ntypx) = 10
     Max number of k-points (npk) =  40000
     Max angular momentum in pseudopotentials (lmaxx) =  3
     file Zr.pbe-spn-kjpaw_psl.1.0.0.UPF: wavefunction(s)  4S 4P renormalized
     file Te.pbe-n-kjpaw_psl.1.0.0.UPF: wavefunction(s)  5S 5P renormalized

     Subspace diagonalization in iterative solution of the eigenvalue problem:
     a serial algorithm will be used

     Message from routine setup:
     using ibrav=0 with symmetry is DISCOURAGED, use correct ibrav instead
 
     Parallelization info
     --------------------
     sticks:   dense  smooth     PW     G-vecs:    dense   smooth      PW
     Min         734     293     87               115340    29174    4753
     Max         735     295     88               115345    29176    4760
     Sum        7345    2937    873              1153415   291749   47557
 


     bravais-lattice index     =            0
     lattice parameter (alat)  =      15.5510  a.u.
     unit-cell volume          =    3018.5011 (a.u.)^3
     number of atoms/cell      =           12
     number of atomic types    =            2
     number of electrons       =        84.00
     number of Kohn-Sham states=           50
     kinetic-energy cutoff     =      80.0000  Ry
     charge density cutoff     =     800.0000  Ry
     scf convergence threshold =      1.0E-10
     mixing beta               =       0.7000
     number of iterations used =            8  plain     mixing
     Exchange-correlation= SLA  PW   PBX  PBC
                           (   1   4   3   4   0   0   0)

     celldm(1)=  15.551040  celldm(2)=   0.000000  celldm(3)=   0.000000
     celldm(4)=   0.000000  celldm(5)=   0.000000  celldm(6)=   0.000000

     crystal axes: (cart. coord. in units of alat)
               a(1) = (   0.246007  -0.969268   0.000000 )  
               a(2) = (   0.246007   0.969268   0.000000 )  
               a(3) = (   0.000000   0.000000   1.683031 )  

     reciprocal axes: (cart. coord. in units 2 pi/alat)
               b(1) = (  2.032465 -0.515853  0.000000 )  
               b(2) = (  2.032465  0.515853  0.000000 )  
               b(3) = (  0.000000  0.000000  0.594166 )  


     PseudoPot. # 1 for Zr read from file:
     pseudo/Zr.pbe-spn-kjpaw_psl.1.0.0.UPF
     MD5 check sum: 02112c41713a0468aff2bb39ef194e36
     Pseudo is Projector augmented-wave + core cor, Zval = 12.0
     Generated using &quot;atomic&quot; code by A. Dal Corso  v.6.2.2
     Shape of augmentation charge: PSQ
     Using radial grid of 1225 points,  6 beta functions with: 
                l(1) =   0
                l(2) =   0
                l(3) =   1
                l(4) =   1
                l(5) =   2
                l(6) =   2
     Q(r) pseudized with 0 coefficients 


     PseudoPot. # 2 for Te read from file:
     pseudo/Te.pbe-n-kjpaw_psl.1.0.0.UPF
     MD5 check sum: 66247bff2bd9dbf220fbb0bf5ab56e9d
     Pseudo is Projector augmented-wave + core cor, Zval =  6.0
     Generated using &quot;atomic&quot; code by A. Dal Corso  v.6.3
     Shape of augmentation charge: PSQ
     Using radial grid of 1245 points,  6 beta functions with: 
                l(1) =   0
                l(2) =   0
                l(3) =   1
                l(4) =   1
                l(5) =   2
                l(6) =   2
     Q(r) pseudized with 0 coefficients 


     atomic species   valence    mass     pseudopotential
        Zr            12.00    91.22000     Zr( 1.00)
        Te             6.00   127.60000     Te( 1.00)

      8 Sym. Ops., with inversion, found ( 4 have fractional translation)



   Cartesian axes

     site n.     atom                  positions (alat units)
         1           Zr  tau(   1) = (   0.0000000   0.6016083   0.4207578  )
         2           Zr  tau(   2) = (   0.2460067   0.3676598   1.2622733  )
         3           Te  tau(   3) = (   0.2460067   0.3341680   0.4207578  )
         4           Te  tau(   4) = (   0.0000000   0.6351001   1.2622733  )
         5           Te  tau(   5) = (   0.2460067   0.8116462   0.2533060  )
         6           Te  tau(   6) = (   0.0000000   0.1576220   1.4297251  )
         7           Te  tau(   7) = (   0.2460067   0.8116462   0.5882096  )
         8           Te  tau(   8) = (   0.0000000   0.1576220   1.0948215  )
         9           Te  tau(   9) = (   0.0000000   0.4218977   0.7375665  )
        10           Te  tau(  10) = (   0.2460067   0.5473704   0.9454646  )
        11           Te  tau(  11) = (   0.0000000   0.4218977   0.1039490  )
        12           Te  tau(  12) = (   0.2460067   0.5473704   1.5790820  )

     number of k points=    63  Methfessel-Paxton smearing, width (Ry)=  0.0030
                       cart. coord. in units 2pi/alat
        k(    1) = (   0.0000000   0.0000000   0.0000000), wk =   0.0078125
        k(    2) = (   0.0000000   0.0000000   0.1485415), wk =   0.0156250
        k(    3) = (   0.0000000   0.0000000  -0.2970830), wk =   0.0078125
        k(    4) = (   0.2540581   0.0644816   0.0000000), wk =   0.0312500
        k(    5) = (   0.2540581   0.0644816   0.1485415), wk =   0.0625000
        k(    6) = (   0.2540581   0.0644816  -0.2970830), wk =   0.0312500
        k(    7) = (   0.5081162   0.1289633   0.0000000), wk =   0.0312500
        k(    8) = (   0.5081162   0.1289633   0.1485415), wk =   0.0625000
        k(    9) = (   0.5081162   0.1289633  -0.2970830), wk =   0.0312500
        k(   10) = (   0.7621743   0.1934449   0.0000000), wk =   0.0312500
        k(   11) = (   0.7621743   0.1934449   0.1485415), wk =   0.0625000
        k(   12) = (   0.7621743   0.1934449  -0.2970830), wk =   0.0312500
        k(   13) = (  -1.0162324  -0.2579266   0.0000000), wk =   0.0156250
        k(   14) = (  -1.0162324  -0.2579266   0.1485415), wk =   0.0312500
        k(   15) = (  -1.0162324  -0.2579266  -0.2970830), wk =   0.0156250
        k(   16) = (   0.5081162   0.0000000   0.0000000), wk =   0.0156250
        k(   17) = (   0.5081162   0.0000000   0.1485415), wk =   0.0312500
        k(   18) = (   0.5081162   0.0000000  -0.2970830), wk =   0.0156250
        k(   19) = (   0.7621743   0.0644816   0.0000000), wk =   0.0312500
        k(   20) = (   0.7621743   0.0644816   0.1485415), wk =   0.0625000
        k(   21) = (   0.7621743   0.0644816  -0.2970830), wk =   0.0312500
        k(   22) = (   1.0162324   0.1289633   0.0000000), wk =   0.0312500
        k(   23) = (   1.0162324   0.1289633   0.1485415), wk =   0.0625000
        k(   24) = (   1.0162324   0.1289633  -0.2970830), wk =   0.0312500
        k(   25) = (  -0.7621743  -0.3224082   0.0000000), wk =   0.0312500
        k(   26) = (  -0.7621743  -0.3224082   0.1485415), wk =   0.0625000
        k(   27) = (  -0.7621743  -0.3224082  -0.2970830), wk =   0.0312500
        k(   28) = (  -0.5081162  -0.2579266   0.0000000), wk =   0.0312500
        k(   29) = (  -0.5081162  -0.2579266   0.1485415), wk =   0.0625000
        k(   30) = (  -0.5081162  -0.2579266  -0.2970830), wk =   0.0312500
        k(   31) = (  -0.2540581  -0.1934449   0.0000000), wk =   0.0312500
        k(   32) = (  -0.2540581  -0.1934449   0.1485415), wk =   0.0625000
        k(   33) = (  -0.2540581  -0.1934449  -0.2970830), wk =   0.0312500
        k(   34) = (   0.0000000  -0.1289633   0.0000000), wk =   0.0156250
        k(   35) = (   0.0000000  -0.1289633   0.1485415), wk =   0.0312500
        k(   36) = (   0.0000000  -0.1289633  -0.2970830), wk =   0.0156250
        k(   37) = (   1.0162324   0.0000000   0.0000000), wk =   0.0156250
        k(   38) = (   1.0162324   0.0000000   0.1485415), wk =   0.0312500
        k(   39) = (   1.0162324   0.0000000  -0.2970830), wk =   0.0156250
        k(   40) = (   1.2702905   0.0644816   0.0000000), wk =   0.0312500
        k(   41) = (   1.2702905   0.0644816   0.1485415), wk =   0.0625000
        k(   42) = (   1.2702905   0.0644816  -0.2970830), wk =   0.0312500
        k(   43) = (  -0.5081162  -0.3868899   0.0000000), wk =   0.0312500
        k(   44) = (  -0.5081162  -0.3868899   0.1485415), wk =   0.0625000
        k(   45) = (  -0.5081162  -0.3868899  -0.2970830), wk =   0.0312500
        k(   46) = (  -0.2540581  -0.3224082   0.0000000), wk =   0.0312500
        k(   47) = (  -0.2540581  -0.3224082   0.1485415), wk =   0.0625000
        k(   48) = (  -0.2540581  -0.3224082  -0.2970830), wk =   0.0312500
        k(   49) = (   0.0000000  -0.2579266   0.0000000), wk =   0.0156250
        k(   50) = (   0.0000000  -0.2579266   0.1485415), wk =   0.0312500
        k(   51) = (   0.0000000  -0.2579266  -0.2970830), wk =   0.0156250
        k(   52) = (   1.5243485   0.0000000   0.0000000), wk =   0.0156250
        k(   53) = (   1.5243485   0.0000000   0.1485415), wk =   0.0312500
        k(   54) = (   1.5243485   0.0000000  -0.2970830), wk =   0.0156250
        k(   55) = (  -0.2540581  -0.4513715   0.0000000), wk =   0.0312500
        k(   56) = (  -0.2540581  -0.4513715   0.1485415), wk =   0.0625000
        k(   57) = (  -0.2540581  -0.4513715  -0.2970830), wk =   0.0312500
        k(   58) = (   0.0000000  -0.3868899   0.0000000), wk =   0.0156250
        k(   59) = (   0.0000000  -0.3868899   0.1485415), wk =   0.0312500
        k(   60) = (   0.0000000  -0.3868899  -0.2970830), wk =   0.0156250
        k(   61) = (  -2.0324647   0.0000000   0.0000000), wk =   0.0078125
        k(   62) = (  -2.0324647   0.0000000   0.1485415), wk =   0.0156250
        k(   63) = (  -2.0324647   0.0000000  -0.2970830), wk =   0.0078125

     Dense  grid:  1153415 G-vectors     FFT dimensions: ( 144, 144, 240)

     Smooth grid:   291749 G-vectors     FFT dimensions: (  90,  90, 150)

     Estimated max dynamical RAM per process >     657.19 MB

     Estimated total dynamical RAM >       6.42 GB

     Initial potential from superposition of free atoms

     starting charge   83.99353, renormalised to   84.00000
     Starting wfcs are   66 randomized atomic wfcs
     Checking if some PAW data can be deallocated... 

     total cpu time spent up to now is       43.0 secs

     Self-consistent Calculation

     iteration #  1     ecut=    80.00 Ry     beta= 0.70
     Davidson diagonalization with overlap
     ethr =  1.00E-02,  avg # of iterations =  2.2

     Threshold (ethr) on eigenvalues was too large:
     Diagonalizing with lowered threshold

     Davidson diagonalization with overlap
     ethr =  4.53E-04,  avg # of iterations =  4.0

     total cpu time spent up to now is      203.8 secs

     total energy              =   -4240.71470757 Ry
     estimated scf accuracy    <       0.44706457 Ry

     iteration #  2     ecut=    80.00 Ry     beta= 0.70
     Davidson diagonalization with overlap
     ethr =  5.32E-04,  avg # of iterations =  7.9

     total cpu time spent up to now is      316.7 secs

     total energy              =   -4240.61776433 Ry
     estimated scf accuracy    <       2.03341391 Ry

     iteration #  3     ecut=    80.00 Ry     beta= 0.70
     Davidson diagonalization with overlap
     ethr =  5.32E-04,  avg # of iterations =  5.4

     total cpu time spent up to now is      410.8 secs

     total energy              =   -4240.92999693 Ry
     estimated scf accuracy    <       0.00804887 Ry

     iteration #  4     ecut=    80.00 Ry     beta= 0.70
     Davidson diagonalization with overlap
     c_bands:  1 eigenvalues not converged
     c_bands:  2 eigenvalues not converged
     c_bands:  2 eigenvalues not converged
     c_bands:  1 eigenvalues not converged
     c_bands:  1 eigenvalues not converged
     c_bands:  2 eigenvalues not converged
     c_bands:  2 eigenvalues not converged
     c_bands:  2 eigenvalues not converged
     c_bands:  2 eigenvalues not converged
     c_bands:  1 eigenvalues not converged
     c_bands:  1 eigenvalues not converged
     c_bands:  2 eigenvalues not converged
     c_bands:  1 eigenvalues not converged
     c_bands:  1 eigenvalues not converged
     c_bands:  2 eigenvalues not converged
     c_bands:  4 eigenvalues not converged
     c_bands:  3 eigenvalues not converged
     c_bands:  1 eigenvalues not converged
     c_bands:  1 eigenvalues not converged
     ethr =  9.58E-06,  avg # of iterations = 17.4

     total cpu time spent up to now is      587.1 secs

     total energy              =   -4240.93991841 Ry
     estimated scf accuracy    <       0.04108707 Ry

     iteration #  5     ecut=    80.00 Ry     beta= 0.70
     Davidson diagonalization with overlap
     ethr =  9.58E-06,  avg # of iterations =  7.0

     total cpu time spent up to now is      680.8 secs

     total energy              =   -4240.94176195 Ry
     estimated scf accuracy    <       0.00691779 Ry

     iteration #  6     ecut=    80.00 Ry     beta= 0.70
     Davidson diagonalization with overlap
     ethr =  8.24E-06,  avg # of iterations =  3.3

     total cpu time spent up to now is      757.6 secs

     total energy              =   -4240.94236001 Ry
     estimated scf accuracy    <       0.00095025 Ry

     iteration #  7     ecut=    80.00 Ry     beta= 0.70
     Davidson diagonalization with overlap
     ethr =  1.13E-06,  avg # of iterations =  9.9

     total cpu time spent up to now is      874.8 secs

     total energy              =   -4240.94281463 Ry
     estimated scf accuracy    <       0.00097179 Ry

     iteration #  8     ecut=    80.00 Ry     beta= 0.70
     Davidson diagonalization with overlap
     ethr =  1.13E-06,  avg # of iterations =  2.2

     total cpu time spent up to now is      944.4 secs

     total energy              =   -4240.94285056 Ry
     estimated scf accuracy    <       0.00013020 Ry

     iteration #  9     ecut=    80.00 Ry     beta= 0.70
     Davidson diagonalization with overlap
     ethr =  1.55E-07,  avg # of iterations =  6.4

     total cpu time spent up to now is     1036.9 secs

     total energy              =   -4240.94289585 Ry
     estimated scf accuracy    <       0.00002355 Ry

     iteration # 10     ecut=    80.00 Ry     beta= 0.70
     Davidson diagonalization with overlap
     ethr =  2.80E-08,  avg # of iterations =  2.5

     total cpu time spent up to now is     1108.7 secs

     total energy              =   -4240.94289807 Ry
     estimated scf accuracy    <       0.00000232 Ry

     iteration # 11     ecut=    80.00 Ry     beta= 0.70
     Davidson diagonalization with overlap
     ethr =  2.77E-09,  avg # of iterations =  6.4

     total cpu time spent up to now is     1209.1 secs

     total energy              =   -4240.94289957 Ry
     estimated scf accuracy    <       0.00000109 Ry

     iteration # 12     ecut=    80.00 Ry     beta= 0.70
     Davidson diagonalization with overlap
     ethr =  1.29E-09,  avg # of iterations =  1.7

     total cpu time spent up to now is     1276.4 secs

     total energy              =   -4240.94289957 Ry
     estimated scf accuracy    <       0.00000023 Ry

     iteration # 13     ecut=    80.00 Ry     beta= 0.70
     Davidson diagonalization with overlap
     ethr =  2.74E-10,  avg # of iterations =  6.1

     total cpu time spent up to now is     1367.8 secs

     total energy              =   -4240.94289965 Ry
     estimated scf accuracy    <       0.00000004 Ry

     iteration # 14     ecut=    80.00 Ry     beta= 0.70
     Davidson diagonalization with overlap
     ethr =  4.23E-11,  avg # of iterations =  2.9

     total cpu time spent up to now is     1441.2 secs

     total energy              =   -4240.94289965 Ry
     estimated scf accuracy    <       0.00000001 Ry

     iteration # 15     ecut=    80.00 Ry     beta= 0.70
     Davidson diagonalization with overlap
     ethr =  1.58E-11,  avg # of iterations =  5.1

     total cpu time spent up to now is     1523.1 secs

     End of self-consistent calculation

          k = 0.0000 0.0000 0.0000 ( 36359 PWs)   bands (ev):

   -44.1443 -44.1443 -22.2604 -22.2604 -22.1705 -22.1705 -22.0795 -22.0793
    -8.1540  -7.9310  -7.1301  -6.9440  -6.1296  -5.4093  -4.7978  -4.7494
    -4.7484  -3.7831   0.2442   0.7810   0.8215   1.1540   1.3170   1.5358
     1.9295   2.0673   2.2705   2.7985   2.9171   2.9889   3.2821   3.3587
     3.8225   3.9189   4.0724   4.0948   4.3398   4.3405   4.4439   4.7163
     4.7263   5.3459   5.6323   5.8817   5.8937   5.9445   6.0203   6.7498
     7.0742   7.2835

          k = 0.0000 0.0000 0.1485 ( 36415 PWs)   bands (ev):

   -44.1443 -44.1443 -22.2604 -22.2604 -22.1705 -22.1705 -22.0795 -22.0793
    -8.1279  -7.9729  -7.0904  -6.9623  -6.0646  -5.5973  -4.7892  -4.7554
    -4.5339  -3.8930   0.3210   0.8463   0.9217   0.9433   1.1107   1.8632
     1.9465   2.0126   2.0431   2.8208   2.9036   3.0473   3.3910   3.4555
     3.7823   3.9692   4.0425   4.1075   4.2653   4.3753   4.4519   4.7078
     4.7203   4.8860   5.8434   5.8752   5.8824   6.1701   6.3248   6.5993
     6.8853   7.1270

          k = 0.0000 0.0000-0.2971 ( 36410 PWs)   bands (ev):

   -44.1443 -44.1443 -22.2604 -22.2604 -22.1705 -22.1705 -22.0794 -22.0794
    -8.0578  -8.0578  -7.0162  -7.0162  -5.8742  -5.8742  -4.7723  -4.7723
    -4.1781  -4.1781   0.5507   0.5507   0.9697   0.9697   1.3443   1.3443
     1.9914   1.9914   2.5681   2.5681   2.8665   2.8665   3.5924   3.5924
     3.9276   3.9276   4.1048   4.1048   4.3095   4.3095   4.4327   4.4327
     4.7089   4.7089   5.8742   5.8742   6.2215   6.2215   6.5148   6.5148
     6.8043   6.8043

          k = 0.2541 0.0645 0.0000 ( 36396 PWs)   bands (ev):

   -44.1439 -44.1439 -22.2584 -22.2584 -22.1801 -22.1801 -22.0784 -22.0782
    -8.0297  -7.8094  -7.0646  -6.8949  -6.0701  -5.3612  -4.7969  -4.7515
    -4.7028  -3.9594   0.3255   0.8949   0.9462   0.9796   1.2606   1.4987
     1.5479   1.6157   1.7839   2.5900   2.6198   3.2177   3.2719   3.7041
     3.7803   3.7833   3.8752   3.8923   4.0695   4.2618   4.3353   4.4065
     4.4632   4.5880   5.9145   5.9804   6.1691   6.5031   6.5372   6.6724
     7.0411   7.2243

          k = 0.2541 0.0645 0.1485 ( 36423 PWs)   bands (ev):

   -44.1439 -44.1439 -22.2584 -22.2584 -22.1801 -22.1801 -22.0784 -22.0783
    -8.0040  -7.8509  -7.0282  -6.9115  -6.0048  -5.5456  -4.7543  -4.7118
    -4.5868  -4.0459   0.3912   0.8311   0.9154   0.9869   1.2083   1.2266
     1.6993   1.7206   2.1004   2.5896   2.6015   2.9508   3.4067   3.4201
     3.5230   3.8395   3.9629   4.0195   4.0592   4.2076   4.3950   4.4226
     4.6882   4.7407   5.8801   6.0026   6.1276   6.2350   6.3178   6.7967
     7.2111   7.2521

          k = 0.2541 0.0645-0.2971 ( 36436 PWs)   bands (ev):

   -44.1439 -44.1439 -22.2584 -22.2584 -22.1801 -22.1801 -22.0783 -22.0783
    -7.9348  -7.9348  -6.9605  -6.9605  -5.8160  -5.8160  -4.7327  -4.7327
    -4.2794  -4.2794   0.5787   0.5787   0.9962   0.9962   1.1115   1.1115
     1.8131   1.8131   2.4875   2.4875   2.6516   2.6516   3.2629   3.2629
     3.6730   3.6730   3.9991   3.9991   4.1615   4.1615   4.4198   4.4198
     4.9362   4.9362   5.7945   5.7945   6.1450   6.1450   6.4657   6.4657
     7.3663   7.3663

          k = 0.5081 0.1290 0.0000 ( 36499 PWs)   bands (ev):

   -44.1431 -44.1430 -22.2537 -22.2537 -22.2031 -22.2031 -22.0757 -22.0756
    -7.6672  -7.4527  -6.9087  -6.7723  -5.8981  -5.2437  -5.0055  -4.6380
    -4.5909  -4.4767   0.0946   0.4906   0.6872   1.0462   1.1655   1.3032
     1.6327   1.7113   1.8117   2.0836   2.1468   2.3767   2.5448   3.4228
     3.4918   3.5436   3.5718   3.6523   3.7680   3.8534   3.9858   4.2166
     4.3221   4.8954   5.7964   6.1473   6.2544   6.6073   6.6394   7.0354
     7.4414   7.5549

          k = 0.5081 0.1290 0.1485 ( 36476 PWs)   bands (ev):

   -44.1430 -44.1430 -22.2537 -22.2537 -22.2031 -22.2031 -22.0757 -22.0756
    -7.6425  -7.4940  -6.8786  -6.7856  -5.8355  -5.4224  -4.8618  -4.6255
    -4.6111  -4.4948   0.1448   0.4703   0.7729   0.8856   1.1811   1.2768
     1.4017   1.5775   2.0054   2.0919   2.3295   2.4794   2.8530   3.3809
     3.4500   3.5002   3.5242   3.6702   3.7526   3.7816   3.8692   4.2520
     4.2982   4.4700   6.2267   6.2686   6.4181   6.6071   6.6933   6.9052
     7.2927   7.5255

          k = 0.5081 0.1290-0.2971 ( 36466 PWs)   bands (ev):

   -44.1430 -44.1430 -22.2537 -22.2537 -22.2031 -22.2031 -22.0757 -22.0757
    -7.5758  -7.5758  -6.8245  -6.8245  -5.6619  -5.6619  -4.7118  -4.7118
    -4.5507  -4.5507   0.2995   0.2995   0.9749   0.9749   0.9967   0.9967
     1.4562   1.4562   2.0550   2.0550   2.6641   2.6641   3.1835   3.1835
     3.3919   3.3919   3.5776   3.5776   3.7497   3.7497   3.8950   3.8950
     4.3329   4.3329   6.4631   6.4631   6.5702   6.5702   6.8805   6.8805
     7.2230   7.2231

          k = 0.7622 0.1934 0.0000 ( 36521 PWs)   bands (ev):

   -44.1422 -44.1422 -22.2490 -22.2490 -22.2260 -22.2260 -22.0730 -22.0730
    -7.1186  -6.8901  -6.7625  -6.6180  -5.7275  -5.4951  -5.1522  -5.1449
    -4.5113  -4.4736  -0.1753   0.0219   0.2692   0.9358   0.9363   1.2942
     1.4876   1.5989   2.0082   2.1943   2.2291   2.2443   2.4464   2.8080
     2.9730   3.2500   3.3561   3.4810   3.5059   3.6684   3.7426   3.7501
     3.8493   4.5805   6.1161   6.4372   6.5253   6.9243   6.9491   7.0094
     7.3786   7.6364

          k = 0.7622 0.1934 0.1485 ( 36503 PWs)   bands (ev):

   -44.1422 -44.1422 -22.2490 -22.2490 -22.2260 -22.2260 -22.0730 -22.0730
    -7.0959  -6.9471  -6.7196  -6.6299  -5.6902  -5.5243  -5.1572  -5.1501
    -4.5038  -4.4775  -0.1441   0.1478   0.1728   0.8047   0.9560   1.2453
     1.4974   1.6028   1.9974   2.0361   2.1353   2.5850   2.6997   2.8927
     2.9351   3.0403   3.2723   3.3634   3.5129   3.6078   3.7319   3.9305
     3.9837   4.4676   5.9437   6.4255   6.7311   6.8703   7.0289   7.0527
     7.1671   7.6544

          k = 0.7622 0.1934-0.2971 ( 36522 PWs)   bands (ev):

   -44.1422 -44.1422 -22.2490 -22.2490 -22.2260 -22.2260 -22.0730 -22.0730
    -7.0329  -7.0329  -6.6650  -6.6650  -5.6035  -5.6035  -5.1584  -5.1584
    -4.4888  -4.4888  -0.0177  -0.0177   0.4639   0.4639   1.0802   1.0802
     1.5574   1.5574   2.0007   2.0007   2.4266   2.4266   2.8418   2.8418
     2.9668   2.9668   3.2767   3.2767   3.5965   3.5965   3.9527   3.9527
     4.0642   4.0642   6.3331   6.3331   6.5152   6.5152   7.0541   7.0541
     7.5418   7.5418

          k =-1.0162-0.2579 0.0000 ( 36506 PWs)   bands (ev):

   -44.1418 -44.1418 -22.2469 -22.2469 -22.2355 -22.2355 -22.0719 -22.0719
    -6.7515  -6.7307  -6.2170  -6.2055  -6.1927  -6.1879  -5.2097  -5.2091
    -4.4535  -4.4244  -0.1206  -0.1011   0.1868   0.2084   1.0111   1.0191
     1.4668   1.6610   2.2164   2.3795   2.4009   2.4266   2.8004   2.8274
     2.8289   2.8592   3.1833   3.2413   3.3066   3.3634   3.4400   3.6311
     3.9311   4.1971   6.6577   6.7288   6.7506   6.7694   7.1054   7.2010
     7.2030   7.2674

          k =-1.0162-0.2579 0.1485 ( 36506 PWs)   bands (ev):

   -44.1418 -44.1418 -22.2469 -22.2469 -22.2355 -22.2355 -22.0719 -22.0719
    -6.7468  -6.7320  -6.2478  -6.2404  -6.1610  -6.1567  -5.2079  -5.2076
    -4.4516  -4.4310  -0.2145  -0.2086   0.3812   0.3892   1.0064   1.0171
     1.4600   1.5915   2.0609   2.1870   2.3479   2.3943   2.6547   2.6697
     2.9281   3.0375   3.0948   3.2052   3.5332   3.5572   3.5872   3.7147
     4.0755   4.2242   6.2263   6.2474   6.5655   6.6426   7.2111   7.2202
     7.4236   7.4928

          k =-1.0162-0.2579-0.2971 ( 36528 PWs)   bands (ev):

   -44.1418 -44.1418 -22.2469 -22.2469 -22.2355 -22.2355 -22.0719 -22.0719
    -6.7377  -6.7377  -6.2616  -6.2616  -6.1428  -6.1428  -5.2061  -5.2061
    -4.4437  -4.4437  -0.2732  -0.2732   0.5695   0.5695   0.9744   0.9744
     1.5065   1.5065   1.9127   1.9127   2.3521   2.3521   2.7604   2.7604
     2.8319   2.8319   3.1901   3.1901   3.6330   3.6330   3.7884   3.7884
     4.3122   4.3122   5.8580   5.8580   6.5093   6.5093   7.2300   7.2300
     7.5573   7.5573

          k = 0.5081 0.0000 0.0000 ( 36503 PWs)   bands (ev):

   -44.1431 -44.1430 -22.2537 -22.2537 -22.2031 -22.2031 -22.0757 -22.0756
    -7.6694  -7.4531  -6.9090  -6.7707  -5.8950  -5.2432  -5.0030  -4.6315
    -4.5986  -4.4762   0.0993   0.4849   0.6862   1.0655   1.1614   1.2539
     1.6269   1.7023   1.7984   2.0907   2.1433   2.3631   2.5472   3.4153
     3.5217   3.5583   3.5911   3.6251   3.7795   3.9056   3.9670   4.2541
     4.3248   4.8871   5.8026   6.1231   6.2881   6.5704   6.5872   7.0728
     7.4481   7.5778

          k = 0.5081 0.0000 0.1485 ( 36453 PWs)   bands (ev):

   -44.1430 -44.1430 -22.2537 -22.2537 -22.2031 -22.2031 -22.0757 -22.0756
    -7.6446  -7.4949  -6.8783  -6.7840  -5.8330  -5.4217  -4.8582  -4.6263
    -4.6103  -4.4965   0.1481   0.4639   0.7750   0.8914   1.1968   1.2522
     1.3669   1.5550   2.0044   2.1055   2.3226   2.4615   2.8529   3.3978
     3.4690   3.4824   3.5357   3.6856   3.7394   3.8432   3.8456   4.3000
     4.3035   4.4547   6.2143   6.2795   6.4372   6.5625   6.6553   6.9388
     7.3076   7.5403

          k = 0.5081 0.0000-0.2971 ( 36452 PWs)   bands (ev):

   -44.1430 -44.1430 -22.2537 -22.2537 -22.2031 -22.2031 -22.0757 -22.0757
    -7.5775  -7.5775  -6.8233  -6.8233  -5.6605  -5.6605  -4.7083  -4.7083
    -4.5533  -4.5533   0.2989   0.2989   0.9755   0.9755   1.0004   1.0004
     1.4215   1.4215   2.0590   2.0590   2.6540   2.6540   3.1848   3.1848
     3.4002   3.4002   3.5824   3.5824   3.7804   3.7804   3.8851   3.8851
     4.3510   4.3510   6.4778   6.4778   6.5342   6.5342   6.8988   6.8988
     7.2240   7.2240

          k = 0.7622 0.0645 0.0000 ( 36505 PWs)   bands (ev):

   -44.1422 -44.1422 -22.2490 -22.2490 -22.2260 -22.2260 -22.0730 -22.0730
    -7.1244  -6.8910  -6.7598  -6.6137  -5.7279  -5.4928  -5.1522  -5.1442
    -4.5004  -4.4853  -0.1665   0.0193   0.2790   0.9258   0.9669   1.3076
     1.4556   1.5614   1.9712   2.2068   2.2347   2.2639   2.3841   2.7838
     2.9632   3.2950   3.3676   3.4858   3.5705   3.6715   3.6993   3.7576
     3.8360   4.6046   6.1134   6.4099   6.5465   6.9220   6.9692   6.9805
     7.3877   7.6711

          k = 0.7622 0.0645 0.1485 ( 36509 PWs)   bands (ev):

   -44.1422 -44.1422 -22.2490 -22.2490 -22.2260 -22.2260 -22.0730 -22.0730
    -7.1014  -6.9495  -6.7156  -6.6253  -5.6906  -5.5230  -5.1569  -5.1492
    -4.4961  -4.4857  -0.1356   0.1481   0.1776   0.7943   0.9835   1.2587
     1.4684   1.5997   1.9753   2.0011   2.0990   2.5879   2.6995   2.8831
     2.9203   3.0453   3.3141   3.3676   3.5584   3.5980   3.7012   3.9660
     3.9780   4.4610   5.9680   6.4022   6.7479   6.8713   7.0014   7.0941
     7.1392   7.6783

          k = 0.7622 0.0645-0.2971 ( 36472 PWs)   bands (ev):

   -44.1422 -44.1422 -22.2490 -22.2490 -22.2260 -22.2260 -22.0730 -22.0730
    -7.0373  -7.0373  -6.6602  -6.6602  -5.6036  -5.6036  -5.1575  -5.1575
    -4.4890  -4.4890  -0.0094  -0.0094   0.4570   0.4570   1.1000   1.1000
     1.5523   1.5523   1.9474   1.9474   2.4205   2.4205   2.8463   2.8463
     2.9461   2.9461   3.3279   3.3279   3.5934   3.5934   3.9564   3.9564
     4.0573   4.0573   6.3603   6.3603   6.5143   6.5143   7.0240   7.0240
     7.5691   7.5691

          k = 1.0162 0.1290 0.0000 ( 36514 PWs)   bands (ev):

   -44.1418 -44.1418 -22.2469 -22.2469 -22.2355 -22.2355 -22.0719 -22.0719
    -6.7515  -6.7307  -6.2168  -6.2056  -6.1927  -6.1879  -5.2097  -5.2092
    -4.4535  -4.4244  -0.1263  -0.0953   0.1840   0.2113   1.0031   1.0279
     1.4737   1.6509   2.2127   2.3853   2.4045   2.4201   2.7727   2.8296
     2.8530   2.8756   3.2038   3.2097   3.2932   3.3493   3.4851   3.6148
     3.9144   4.2136   6.6518   6.7346   6.7378   6.7856   7.1299   7.2012
     7.2050   7.2470

          k = 1.0162 0.1290 0.1485 ( 36524 PWs)   bands (ev):

   -44.1418 -44.1418 -22.2469 -22.2469 -22.2355 -22.2355 -22.0719 -22.0719
    -6.7468  -6.7320  -6.2477  -6.2404  -6.1610  -6.1568  -5.2079  -5.2076
    -4.4516  -4.4310  -0.2169  -0.2065   0.3825   0.3885   1.0052   1.0184
     1.4662   1.5850   2.0702   2.1700   2.3507   2.3932   2.6294   2.7014
     2.9273   3.0490   3.0944   3.1960   3.5149   3.5479   3.6242   3.7069
     4.0541   4.2436   6.2214   6.2574   6.5620   6.6451   7.2138   7.2200
     7.4342   7.4834

          k = 1.0162 0.1290-0.2971 ( 36516 PWs)   bands (ev):

   -44.1418 -44.1418 -22.2469 -22.2469 -22.2355 -22.2355 -22.0719 -22.0719
    -6.7377  -6.7377  -6.2616  -6.2616  -6.1428  -6.1428  -5.2061  -5.2061
    -4.4437  -4.4437  -0.2733  -0.2733   0.5698   0.5698   0.9742   0.9742
     1.5077   1.5077   1.9135   1.9135   2.3456   2.3456   2.7405   2.7405
     2.8654   2.8654   3.1798   3.1798   3.6348   3.6348   3.7875   3.7875
     4.3128   4.3128   5.8608   5.8608   6.5085   6.5085   7.2309   7.2309
     7.5584   7.5584

          k =-0.7622-0.3224 0.0000 ( 36511 PWs)   bands (ev):

   -44.1422 -44.1422 -22.2490 -22.2490 -22.2260 -22.2260 -22.0730 -22.0730
    -7.1100  -6.8887  -6.7669  -6.6237  -5.7270  -5.4983  -5.1517  -5.1463
    -4.5197  -4.4642  -0.1876   0.0257   0.2551   0.9025   0.9499   1.2780
     1.5034   1.6660   2.0844   2.1757   2.2166   2.2602   2.4633   2.8448
     2.9830   3.2139   3.3427   3.4764   3.4862   3.6254   3.6827   3.7201
     3.9670   4.5382   6.1198   6.4598   6.5252   6.8430   6.9901   7.0766
     7.3541   7.5880

          k =-0.7622-0.3224 0.1485 ( 36492 PWs)   bands (ev):

   -44.1422 -44.1422 -22.2490 -22.2490 -22.2260 -22.2260 -22.0730 -22.0730
    -7.0879  -6.9435  -6.7257  -6.6363  -5.6895  -5.5260  -5.1575  -5.1516
    -4.5096  -4.4709  -0.1558   0.1473   0.1662   0.8190   0.9246   1.2270
     1.5259   1.6147   1.9984   2.1261   2.1857   2.5832   2.6766   2.9145
     2.9421   3.0596   3.2319   3.3389   3.4749   3.5863   3.7584   3.8790
     4.0123   4.4751   5.9116   6.4625   6.6995   6.8665   7.0085   7.0890
     7.1923   7.6025

          k =-0.7622-0.3224-0.2971 ( 36508 PWs)   bands (ev):

   -44.1422 -44.1422 -22.2490 -22.2490 -22.2260 -22.2260 -22.0730 -22.0730
    -7.0266  -7.0266  -6.6720  -6.6720  -5.6032  -5.6032  -5.1597  -5.1597
    -4.4886  -4.4886  -0.0292  -0.0292   0.4732   0.4732   1.0566   1.0566
     1.5655   1.5655   2.0654   2.0654   2.4486   2.4486   2.8367   2.8367
     2.9962   2.9962   3.2052   3.2052   3.5938   3.5938   3.9192   3.9192
     4.1009   4.1009   6.2989   6.2989   6.5146   6.5146   7.1021   7.1021
     7.4912   7.4912

          k =-0.5081-0.2579 0.0000 ( 36480 PWs)   bands (ev):

   -44.1431 -44.1430 -22.2537 -22.2537 -22.2031 -22.2031 -22.0757 -22.0756
    -7.6616  -7.4517  -6.9082  -6.7756  -5.9056  -5.2448  -5.0115  -4.6475
    -4.5784  -4.4779   0.0836   0.5038   0.6876   1.0195   1.1752   1.4126
     1.6425   1.7424   1.8447   2.0714   2.1455   2.4052   2.5370   3.3930
     3.4439   3.5400   3.5516   3.6891   3.7069   3.7654   4.0281   4.1298
     4.3122   4.9132   5.7839   6.1623   6.2188   6.7022   6.7638   6.9479
     7.4174   7.5040

          k =-0.5081-0.2579 0.1485 ( 36485 PWs)   bands (ev):

   -44.1431 -44.1430 -22.2537 -22.2537 -22.2031 -22.2031 -22.0757 -22.0756
    -7.6373  -7.4917  -6.8798  -6.7891  -5.8416  -5.4240  -4.8702  -4.6234
    -4.6131  -4.4908   0.1371   0.4855   0.7679   0.8712   1.1695   1.3072
     1.4965   1.6405   1.9967   2.0680   2.3452   2.5151   2.8523   3.3117
     3.4506   3.5037   3.5110   3.6437   3.6610   3.7715   3.9113   4.1671
     4.2642   4.4969   6.2316   6.2616   6.3788   6.7040   6.7967   6.8331
     7.2493   7.4949

          k =-0.5081-0.2579-0.2971 ( 36478 PWs)   bands (ev):

   -44.1430 -44.1430 -22.2537 -22.2537 -22.2031 -22.2031 -22.0757 -22.0757
    -7.5717  -7.5717  -6.8277  -6.8277  -5.6653  -5.6653  -4.7200  -4.7200
    -4.5449  -4.5449   0.3008   0.3008   0.9714   0.9714   0.9915   0.9915
     1.5471   1.5471   2.0400   2.0400   2.6945   2.6945   3.1622   3.1622
     3.3744   3.3744   3.5505   3.5505   3.7023   3.7023   3.9159   3.9159
     4.2915   4.2915   6.4296   6.4296   6.6478   6.6478   6.8398   6.8398
     7.2281   7.2281

          k =-0.2541-0.1934 0.0000 ( 36410 PWs)   bands (ev):

   -44.1439 -44.1439 -22.2584 -22.2584 -22.1801 -22.1801 -22.0784 -22.0782
    -8.0259  -7.8087  -7.0607  -6.8967  -6.0817  -5.3649  -4.8128  -4.7528
    -4.6889  -3.9602   0.3488   0.8974   0.9770   1.0123   1.2883   1.5360
     1.5736   1.6199   1.8066   2.5592   2.6102   3.2079   3.3294   3.6810
     3.7262   3.7427   3.8619   3.8804   3.9153   4.1955   4.3199   4.3522
     4.3696   4.6316   5.9722   6.0215   6.2469   6.5183   6.5238   6.7373
     7.0123   7.1459

          k =-0.2541-0.1934 0.1485 ( 36427 PWs)   bands (ev):

   -44.1439 -44.1439 -22.2584 -22.2584 -22.1801 -22.1801 -22.0784 -22.0783
    -8.0004  -7.8494  -7.0258  -6.9131  -6.0148  -5.5497  -4.7706  -4.7041
    -4.5824  -4.0460   0.4142   0.8330   0.9244   1.0576   1.2276   1.2598
     1.7003   1.7345   2.1335   2.5590   2.5965   2.9454   3.4211   3.4634
     3.5339   3.7549   3.8447   3.9073   4.0139   4.1772   4.3544   4.3701
     4.6546   4.7757   5.8814   6.0240   6.1320   6.3087   6.3861   6.7960
     7.1716   7.2432

          k =-0.2541-0.1934-0.2971 ( 36422 PWs)   bands (ev):

   -44.1439 -44.1439 -22.2584 -22.2584 -22.1801 -22.1801 -22.0783 -22.0783
    -7.9320  -7.9320  -6.9608  -6.9608  -5.8226  -5.8226  -4.7363  -4.7363
    -4.2780  -4.2780   0.5980   0.5980   1.0145   1.0145   1.1540   1.1540
     1.8200   1.8200   2.4870   2.4870   2.6529   2.6529   3.2710   3.2710
     3.6852   3.6852   3.8426   3.8426   4.1368   4.1368   4.3668   4.3668
     4.9518   4.9518   5.7670   5.7670   6.1876   6.1876   6.5088   6.5088
     7.3555   7.3555

          k = 0.0000-0.1290 0.0000 ( 36417 PWs)   bands (ev):

   -44.1443 -44.1443 -22.2604 -22.2604 -22.1705 -22.1705 -22.0795 -22.0793
    -8.1520  -7.9306  -7.1272  -6.9448  -6.1370  -5.4119  -4.8081  -4.7600
    -4.7293  -3.7835   0.2600   0.7843   0.8621   1.1651   1.3284   1.5673
     1.9293   2.0668   2.2683   2.8054   2.9202   2.9909   3.2796   3.3974
     3.7895   3.9076   3.9407   4.0128   4.2867   4.3401   4.3972   4.7035
     4.7251   5.3221   5.6517   5.9181   5.9327   5.9922   6.0282   6.7647
     7.0742   7.2290

          k = 0.0000-0.1290 0.1485 ( 36419 PWs)   bands (ev):

   -44.1443 -44.1443 -22.2604 -22.2604 -22.1705 -22.1705 -22.0795 -22.0793
    -8.1260  -7.9721  -7.0885  -6.9628  -6.0711  -5.6003  -4.7982  -4.7501
    -4.5326  -3.8931   0.3371   0.8905   0.9292   0.9467   1.1316   1.8675
     1.9464   2.0305   2.0427   2.8271   2.9073   3.0523   3.3725   3.4939
     3.7807   3.9181   3.9585   4.0024   4.2615   4.3211   4.4073   4.6998
     4.7191   4.8797   5.8592   5.9041   5.9314   6.1762   6.3367   6.6095
     6.8865   7.0935

          k = 0.0000-0.1290-0.2971 ( 36464 PWs)   bands (ev):

   -44.1443 -44.1443 -22.2604 -22.2604 -22.1705 -22.1705 -22.0794 -22.0794
    -8.0563  -8.0563  -7.0159  -7.0159  -5.8787  -5.8787  -4.7741  -4.7741
    -4.1776  -4.1776   0.5690   0.5690   0.9950   0.9950   1.3496   1.3496
     1.9911   1.9911   2.5804   2.5804   2.8715   2.8715   3.5966   3.5966
     3.8633   3.8633   4.0963   4.0963   4.2292   4.2292   4.4185   4.4185
     4.7060   4.7060   5.9054   5.9054   6.2347   6.2347   6.5181   6.5181
     6.7948   6.7948

          k = 1.0162 0.0000 0.0000 ( 36499 PWs)   bands (ev):

   -44.1418 -44.1418 -22.2469 -22.2469 -22.2355 -22.2355 -22.0719 -22.0719
    -6.7515  -6.7307  -6.2167  -6.2058  -6.1927  -6.1879  -5.2097  -5.2092
    -4.4535  -4.4244  -0.1303  -0.0911   0.1816   0.2137   0.9989   1.0329
     1.4815   1.6398   2.2092   2.3951   2.4081   2.4094   2.7616   2.8377
     2.8409   2.9063   3.1876   3.2308   3.2756   3.3284   3.5435   3.5794
     3.8995   4.2282   6.6469   6.7253   6.7460   6.7949   7.1736   7.2016
     7.2067   7.2074

          k = 1.0162 0.0000 0.1485 ( 36485 PWs)   bands (ev):

   -44.1418 -44.1418 -22.2469 -22.2469 -22.2355 -22.2355 -22.0719 -22.0719
    -6.7469  -6.7320  -6.2477  -6.2405  -6.1610  -6.1568  -5.2079  -5.2076
    -4.4516  -4.4310  -0.2186  -0.2051   0.3843   0.3872   1.0043   1.0194
     1.4733   1.5777   2.0832   2.1497   2.3556   2.3896   2.6197   2.7161
     2.9303   3.0560   3.0984   3.1845   3.4998   3.5485   3.6543   3.6931
     4.0361   4.2594   6.2187   6.2651   6.5586   6.6473   7.2181   7.2183
     7.4578   7.4612

          k = 1.0162 0.0000-0.2971 ( 36514 PWs)   bands (ev):

   -44.1418 -44.1418 -22.2469 -22.2469 -22.2355 -22.2355 -22.0719 -22.0719
    -6.7377  -6.7377  -6.2616  -6.2616  -6.1428  -6.1428  -5.2061  -5.2061
    -4.4437  -4.4437  -0.2734  -0.2734   0.5702   0.5702   0.9740   0.9740
     1.5090   1.5090   1.9142   1.9142   2.3391   2.3391   2.7281   2.7281
     2.8924   2.8924   3.1685   3.1685   3.6365   3.6365   3.7865   3.7865
     4.3133   4.3133   5.8636   5.8636   6.5078   6.5078   7.2318   7.2318
     7.5595   7.5595

          k = 1.2703 0.0645 0.0000 ( 36468 PWs)   bands (ev):

   -44.1422 -44.1422 -22.2490 -22.2490 -22.2260 -22.2260 -22.0730 -22.0730
    -7.1037  -6.8878  -6.7706  -6.6275  -5.7266  -5.5005  -5.1508  -5.1477
    -4.5241  -4.4591  -0.1961   0.0286   0.2450   0.8829   0.9598   1.2676
     1.5054   1.7158   2.1627   2.1722   2.2172   2.2722   2.4210   2.8742
     2.9855   3.1915   3.3755   3.4582   3.5060   3.5913   3.6079   3.6847
     4.0617   4.4975   6.1225   6.4606   6.5508   6.7838   7.0211   7.1410
     7.3197   7.5722

          k = 1.2703 0.0645 0.1485 ( 36490 PWs)   bands (ev):

   -44.1422 -44.1422 -22.2490 -22.2490 -22.2260 -22.2260 -22.0730 -22.0730
    -7.0819  -6.9409  -6.7304  -6.6406  -5.6890  -5.5272  -5.1576  -5.1528
    -4.5127  -4.4673  -0.1640   0.1468   0.1616   0.8287   0.9063   1.2151
     1.5372   1.6291   2.0009   2.1862   2.2347   2.5927   2.6289   2.9345
     2.9432   3.0903   3.2090   3.3070   3.4819   3.5378   3.7682   3.8366
     4.0491   4.4784   5.8908   6.4935   6.6699   6.8628   6.9875   7.1498
     7.1972   7.5535

          k = 1.2703 0.0645-0.2971 ( 36480 PWs)   bands (ev):

   -44.1422 -44.1422 -22.2490 -22.2490 -22.2260 -22.2260 -22.0730 -22.0730
    -7.0219  -7.0219  -6.6772  -6.6772  -5.6031  -5.6031  -5.1606  -5.1606
    -4.4884  -4.4884  -0.0370  -0.0370   0.4793   0.4793   1.0424   1.0424
     1.5717   1.5717   2.1014   2.1014   2.4783   2.4783   2.8344   2.8344
     3.0157   3.0157   3.1538   3.1538   3.5875   3.5875   3.8879   3.8879
     4.1338   4.1338   6.2771   6.2771   6.5132   6.5132   7.1413   7.1413
     7.4445   7.4446

          k =-0.5081-0.3869 0.0000 ( 36463 PWs)   bands (ev):

   -44.1431 -44.1430 -22.2537 -22.2537 -22.2031 -22.2031 -22.0757 -22.0756
    -7.6559  -7.4506  -6.9085  -6.7783  -5.9133  -5.2459  -5.0175  -4.6535
    -4.5694  -4.4791   0.0729   0.5168   0.6844   1.0057   1.1847   1.5384
     1.6528   1.7619   1.8794   2.0509   2.1700   2.4060   2.5259   3.2894
     3.4734   3.5263   3.5515   3.6117   3.7261   3.7269   3.9713   4.1283
     4.2995   4.9279   5.7738   6.0793   6.2854   6.8071   6.8619   6.8960
     7.3664   7.4730

          k =-0.5081-0.3869 0.1485 ( 36477 PWs)   bands (ev):

   -44.1431 -44.1430 -22.2537 -22.2537 -22.2031 -22.2031 -22.0757 -22.0756
    -7.6319  -7.4894  -6.8815  -6.7922  -5.8477  -5.4256  -4.8784  -4.6208
    -4.6157  -4.4869   0.1297   0.5002   0.7636   0.8557   1.1685   1.3277
     1.6164   1.7136   1.9688   2.0418   2.3840   2.5198   2.8499   3.2261
     3.4525   3.4788   3.5102   3.5671   3.6693   3.7471   3.9349   4.1188
     4.2184   4.5193   6.1823   6.2962   6.3539   6.7421   6.8073   6.9342
     7.1867   7.4809

          k =-0.5081-0.3869-0.2971 ( 36492 PWs)   bands (ev):

   -44.1430 -44.1430 -22.2537 -22.2537 -22.2031 -22.2031 -22.0757 -22.0757
    -7.5675  -7.5675  -6.8309  -6.8309  -5.6687  -5.6687  -4.7277  -4.7277
    -4.5395  -4.5395   0.3019   0.3019   0.9664   0.9664   0.9892   0.9892
     1.6578   1.6578   2.0088   2.0088   2.7388   2.7388   3.0974   3.0974
     3.3665   3.3665   3.5170   3.5170   3.6816   3.6816   3.9294   3.9294
     4.2566   4.2566   6.3978   6.3978   6.6948   6.6948   6.8192   6.8192
     7.2515   7.2516

          k =-0.2541-0.3224 0.0000 ( 36485 PWs)   bands (ev):

   -44.1439 -44.1439 -22.2584 -22.2584 -22.1801 -22.1801 -22.0784 -22.0782
    -8.0204  -7.8076  -7.0557  -6.8983  -6.0984  -5.3699  -4.8335  -4.7480
    -4.6775  -3.9614   0.3740   0.9056   0.9687   1.1268   1.3353   1.5968
     1.6107   1.6359   1.8414   2.4922   2.5671   3.2137   3.4228   3.5557
     3.6112   3.6913   3.7263   3.8728   3.9564   4.1339   4.1812   4.2818
     4.3339   4.6761   6.0624   6.0638   6.3147   6.5354   6.5419   6.8121
     6.9338   7.0666

          k =-0.2541-0.3224 0.1485 ( 36445 PWs)   bands (ev):

   -44.1439 -44.1439 -22.2584 -22.2584 -22.1801 -22.1801 -22.0784 -22.0783
    -7.9953  -7.8472  -7.0231  -6.9147  -6.0290  -5.5554  -4.7886  -4.6974
    -4.5770  -4.0462   0.4391   0.8370   0.9337   1.1669   1.2786   1.3134
     1.7092   1.7568   2.1855   2.4952   2.5570   2.9547   3.4187   3.4997
     3.5517   3.5839   3.6579   3.9055   3.9449   4.1171   4.2713   4.3267
     4.6483   4.7997   5.8807   6.0482   6.1410   6.3654   6.4862   6.7753
     7.1431   7.2272

          k =-0.2541-0.3224-0.2971 ( 36442 PWs)   bands (ev):

   -44.1439 -44.1439 -22.2584 -22.2584 -22.1801 -22.1801 -22.0783 -22.0783
    -7.9280  -7.9280  -6.9612  -6.9612  -5.8319  -5.8319  -4.7414  -4.7414
    -4.2759  -4.2759   0.6181   0.6181   1.0313   1.0313   1.2462   1.2462
     1.8339   1.8339   2.4716   2.4716   2.6523   2.6523   3.2777   3.2777
     3.5552   3.5552   3.8063   3.8063   4.0773   4.0773   4.3060   4.3060
     4.9725   4.9725   5.7375   5.7375   6.2014   6.2014   6.5779   6.5779
     7.3445   7.3446

          k = 0.0000-0.2579 0.0000 ( 36445 PWs)   bands (ev):

   -44.1443 -44.1443 -22.2604 -22.2604 -22.1705 -22.1705 -22.0795 -22.0793
    -8.1471  -7.9297  -7.1205  -6.9462  -6.1552  -5.4183  -4.8313  -4.7548
    -4.7161  -3.7845   0.2917   0.7931   0.9707   1.2172   1.3548   1.6356
     1.9290   2.0656   2.2640   2.8229   2.9277   3.0036   3.2607   3.5044
     3.5657   3.6690   3.8800   3.9581   4.1586   4.2672   4.3406   4.6728
     4.7225   5.2867   5.6992   5.9818   6.0154   6.0474   6.0778   6.7856
     7.0742   7.1107

          k = 0.0000-0.2579 0.1485 ( 36452 PWs)   bands (ev):

   -44.1443 -44.1443 -22.2604 -22.2604 -22.1705 -22.1705 -22.0795 -22.0793
    -8.1215  -7.9701  -7.0840  -6.9639  -6.0870  -5.6073  -4.8149  -4.7422
    -4.5298  -3.8934   0.3690   0.9360   0.9638   1.0234   1.1880   1.8788
     1.9460   2.0418   2.0737   2.8431   2.9162   3.0601   3.3360   3.5101
     3.6673   3.6843   3.9086   3.9324   4.1961   4.2517   4.2860   4.6814
     4.7160   4.8742   5.9044   5.9630   6.0028   6.1912   6.3581   6.6187
     6.8892   7.0153

          k = 0.0000-0.2579-0.2971 ( 36454 PWs)   bands (ev):

   -44.1443 -44.1443 -22.2604 -22.2604 -22.1705 -22.1705 -22.0794 -22.0794
    -8.0527  -8.0527  -7.0151  -7.0151  -5.8896  -5.8896  -4.7783  -4.7783
    -4.1764  -4.1764   0.6041   0.6041   1.0760   1.0760   1.3638   1.3638
     1.9906   1.9906   2.6104   2.6104   2.8838   2.8838   3.4922   3.4922
     3.7797   3.7797   4.0754   4.0754   4.1146   4.1146   4.3707   4.3707
     4.6994   4.6994   5.9507   5.9507   6.2671   6.2671   6.5264   6.5264
     6.7612   6.7612

          k = 1.5243 0.0000 0.0000 ( 36439 PWs)   bands (ev):

   -44.1430 -44.1430 -22.2537 -22.2537 -22.2031 -22.2031 -22.0757 -22.0756
    -7.6535  -7.4502  -6.9088  -6.7791  -5.9165  -5.2464  -5.0201  -4.6555
    -4.5662  -4.4795   0.0685   0.5223   0.6818   1.0023   1.1886   1.6073
     1.6743   1.7337   1.8944   2.0405   2.2079   2.3808   2.5202   3.2522
     3.4846   3.4900   3.5562   3.6060   3.7057   3.7602   3.9021   4.1533
     4.2937   4.9331   5.7700   6.0429   6.3168   6.8260   6.8554   6.9587
     7.3278   7.5169

          k = 1.5243 0.0000 0.1485 ( 36476 PWs)   bands (ev):

   -44.1431 -44.1430 -22.2537 -22.2537 -22.2031 -22.2031 -22.0757 -22.0756
    -7.6297  -7.4885  -6.8824  -6.7933  -5.8503  -5.4263  -4.8818  -4.6188
    -4.6177  -4.4854   0.1266   0.5062   0.7620   0.8489   1.1695   1.3350
     1.7069   1.7180   1.9581   2.0175   2.4365   2.4830   2.8473   3.1954
     3.4092   3.4845   3.5163   3.5605   3.6818   3.7316   3.9161   4.1353
     4.1850   4.5283   6.1569   6.3124   6.3479   6.7134   6.8444   7.0061
     7.1425   7.5014

          k = 1.5243 0.0000-0.2971 ( 36508 PWs)   bands (ev):

   -44.1431 -44.1431 -22.2537 -22.2537 -22.2031 -22.2031 -22.0757 -22.0757
    -7.5658  -7.5658  -6.8322  -6.8322  -5.6700  -5.6700  -4.7308  -4.7308
    -4.5373  -4.5373   0.3023   0.3023   0.9644   0.9644   0.9885   0.9885
     1.7170   1.7170   1.9842   1.9842   2.7663   2.7663   3.0512   3.0512
     3.3678   3.3678   3.5058   3.5058   3.6762   3.6762   3.9311   3.9311
     4.2456   4.2456   6.3849   6.3849   6.6964   6.6964   6.8241   6.8241
     7.2706   7.2706

          k =-0.2541-0.4514 0.0000 ( 36444 PWs)   bands (ev):

   -44.1439 -44.1439 -22.2584 -22.2584 -22.1801 -22.1801 -22.0784 -22.0782
    -8.0165  -7.8069  -7.0528  -6.8988  -6.1105  -5.3733  -4.8468  -4.7432
    -4.6724  -3.9622   0.3861   0.9172   0.9572   1.2506   1.3400   1.6226
     1.6374   1.6952   1.8773   2.4201   2.4957   3.2483   3.4054   3.4688
     3.4911   3.6833   3.7900   3.8747   3.9314   4.0567   4.1012   4.2233
     4.3253   4.7043   6.0837   6.1410   6.3366   6.5602   6.5603   6.8450
     6.8580   7.0326

          k =-0.2541-0.4514 0.1485 ( 36461 PWs)   bands (ev):

   -44.1439 -44.1439 -22.2584 -22.2584 -22.1801 -22.1801 -22.0784 -22.0783
    -7.9916  -7.8456  -7.0215  -6.9153  -6.0392  -5.5593  -4.7997  -4.6939
    -4.5737  -4.0462   0.4511   0.8410   0.9372   1.2440   1.3257   1.3751
     1.7205   1.7830   2.2390   2.4260   2.4809   2.9793   3.3540   3.4033
     3.5268   3.5361   3.7430   3.8895   3.9144   3.9833   4.2446   4.3019
     4.6479   4.8148   5.8803   6.0572   6.1621   6.3780   6.5533   6.7435
     7.1432   7.2143

          k =-0.2541-0.4514-0.2971 ( 36490 PWs)   bands (ev):

   -44.1439 -44.1439 -22.2584 -22.2584 -22.1801 -22.1801 -22.0783 -22.0783
    -7.9252  -7.9252  -6.9615  -6.9615  -5.8384  -5.8384  -4.7451  -4.7451
    -4.2744  -4.2744   0.6280   0.6280   1.0388   1.0388   1.3366   1.3366
     1.8496   1.8496   2.4350   2.4350   2.6548   2.6548   3.2623   3.2623
     3.4387   3.4387   3.8658   3.8658   3.9968   3.9968   4.2752   4.2752
     4.9865   4.9865   5.7198   5.7198   6.1950   6.1950   6.6227   6.6227
     7.3408   7.3408

          k = 0.0000-0.3869 0.0000 ( 36477 PWs)   bands (ev):

   -44.1443 -44.1443 -22.2604 -22.2604 -22.1705 -22.1705 -22.0795 -22.0793
    -8.1421  -7.9288  -7.1145  -6.9466  -6.1740  -5.4245  -4.8510  -4.7433
    -4.7127  -3.7855   0.3134   0.8031   1.1172   1.2796   1.3793   1.7099
     1.9286   2.0644   2.2613   2.8419   2.9346   3.0284   3.1681   3.2613
     3.4988   3.6620   3.8518   3.9644   4.0200   4.0922   4.3411   4.6423
     4.7201   5.2645   5.7468   6.0604   6.0669   6.0680   6.1353   6.7597
     7.0260   7.0741

          k = 0.0000-0.3869 0.1485 ( 36452 PWs)   bands (ev):

   -44.1443 -44.1443 -22.2604 -22.2604 -22.1705 -22.1705 -22.0795 -22.0793
    -8.1168  -7.9682  -7.0801  -6.9642  -6.1031  -5.6142  -4.8288  -4.7368
    -4.5272  -3.8936   0.3900   0.9535   0.9921   1.1713   1.2616   1.8919
     1.9456   2.0408   2.1201   2.8602   2.9248   3.0346   3.2014   3.3349
     3.5084   3.7607   3.9057   3.9306   4.0679   4.1256   4.2408   4.6641
     4.7130   4.8732   5.9561   6.0114   6.0421   6.2065   6.3702   6.5949
     6.8920   6.9523

          k = 0.0000-0.3869-0.2971 ( 36454 PWs)   bands (ev):

   -44.1443 -44.1443 -22.2604 -22.2604 -22.1705 -22.1705 -22.0794 -22.0794
    -8.0491  -8.0491  -7.0143  -7.0143  -5.9004  -5.9004  -4.7826  -4.7826
    -4.1751  -4.1751   0.6266   0.6266   1.1901   1.1901   1.3817   1.3817
     1.9900   1.9900   2.6388   2.6388   2.8966   2.8966   3.2449   3.2449
     3.8311   3.8311   4.0156   4.0156   4.0538   4.0538   4.3272   4.3272
     4.6932   4.6932   5.9710   5.9710   6.2976   6.2976   6.5350   6.5350
     6.7181   6.7181

          k =-2.0325 0.0000 0.0000 ( 36452 PWs)   bands (ev):

   -44.1443 -44.1443 -22.2604 -22.2604 -22.1705 -22.1705 -22.0795 -22.0793
    -8.1400  -7.9284  -7.1122  -6.9464  -6.1819  -5.4270  -4.8584  -4.7364
    -4.7142  -3.7860   0.3195   0.8076   1.2452   1.2489   1.3889   1.7543
     1.9285   2.0639   2.2608   2.8502   2.9373   3.0430   3.0696   3.1427
     3.4692   3.8256   3.8400   3.8803   3.9684   4.0013   4.3413   4.6298
     4.7192   5.2572   5.7663   6.0750   6.0845   6.1016   6.1533   6.7232
     7.0081   7.0740

          k =-2.0325 0.0000 0.1485 ( 36456 PWs)   bands (ev):

   -44.1443 -44.1443 -22.2604 -22.2604 -22.1705 -22.1705 -22.0795 -22.0793
    -8.1149  -7.9674  -7.0786  -6.9642  -6.1099  -5.6170  -4.8341  -4.7349
    -4.5263  -3.8937   0.3956   0.9611   1.0037   1.2590   1.2861   1.8979
     1.9454   2.0404   2.1437   2.8677   2.9282   2.9876   3.0845   3.2977
     3.4760   3.8685   3.8946   3.9480   3.9856   4.0244   4.2360   4.6572
     4.7118   4.8731   5.9794   6.0349   6.0495   6.2130   6.3727   6.5712
     6.8931   6.9338

          k =-2.0325 0.0000-0.2971 ( 36460 PWs)   bands (ev):

   -44.1443 -44.1443 -22.2604 -22.2604 -22.1705 -22.1705 -22.0794 -22.0794
    -8.0476  -8.0476  -7.0140  -7.0140  -5.9048  -5.9048  -4.7844  -4.7844
    -4.1746  -4.1746   0.6328   0.6328   1.2483   1.2483   1.3918   1.3918
     1.9898   1.9898   2.6480   2.6480   2.9021   2.9021   3.1295   3.1295
     3.8979   3.8979   3.9389   3.9389   4.0446   4.0446   4.3119   4.3119
     4.6908   4.6908   5.9749   5.9749   6.3092   6.3092   6.5386   6.5386
     6.6988   6.6988

     the Fermi energy is     5.6072 ev

!    total energy              =   -4240.94289965 Ry

     total all-electron energy =   -150287.636594 Ry
     estimated scf accuracy    <          1.3E-11 Ry
     smearing contrib. (-TS)   =       0.00000280 Ry
     internal energy E=F+TS    =   -4240.94290245 Ry

     The total energy is F=E-TS. E is the sum of the following terms:
     one-electron contribution =    -168.20701495 Ry
     hartree contribution      =     117.56288175 Ry
     xc contribution           =    -201.58400792 Ry
     ewald contribution        =    -221.18027251 Ry
     one-center paw contrib.   =   -3767.53448882 Ry

     convergence has been achieved in  15 iterations

     Forces acting on atoms (cartesian axes, Ry/au):

     atom    1 type  1   force =     0.00000000    0.01365497    0.00000000
     atom    2 type  1   force =     0.00000000   -0.01365497    0.00000000
     atom    3 type  2   force =     0.00000000   -0.00010419    0.00000000
     atom    4 type  2   force =     0.00000000    0.00010419    0.00000000
     atom    5 type  2   force =     0.00000000   -0.00315008   -0.00170572
     atom    6 type  2   force =     0.00000000    0.00315008    0.00170572
     atom    7 type  2   force =     0.00000000   -0.00315008    0.00170572
     atom    8 type  2   force =     0.00000000    0.00315008   -0.00170572
     atom    9 type  2   force =     0.00000000   -0.02375564   -0.02668776
     atom   10 type  2   force =     0.00000000    0.02375564    0.02668776
     atom   11 type  2   force =     0.00000000   -0.02375564    0.02668776
     atom   12 type  2   force =     0.00000000    0.02375564   -0.02668776

     Total force =     0.074368     Total SCF correction =     0.000008


     Computing stress (Cartesian axis) and pressure

          total   stress  (Ry/bohr**3)                   (kbar)     P=        6.25
   0.00004505   0.00000000   0.00000000            6.63        0.00        0.00
   0.00000000   0.00002548   0.00000000            0.00        3.75        0.00
   0.00000000   0.00000000   0.00005685            0.00        0.00        8.36

 
     init_run     :     36.00s CPU     36.65s WALL (       1 calls)
     electrons    :   1464.42s CPU   1480.04s WALL (       1 calls)
     forces       :      7.74s CPU      8.01s WALL (       1 calls)
     stress       :     54.03s CPU     54.75s WALL (       1 calls)

     Called by init_run:
     wfcinit      :     31.12s CPU     31.39s WALL (       1 calls)
     potinit      :      1.50s CPU      1.55s WALL (       1 calls)
     hinit0       :      1.64s CPU      1.71s WALL (       1 calls)

     Called by electrons:
     c_bands      :   1176.90s CPU   1183.30s WALL (      16 calls)
     sum_band     :    258.10s CPU    263.53s WALL (      16 calls)
     v_of_rho     :      7.58s CPU      8.13s WALL (      16 calls)
     newd         :     15.72s CPU     19.16s WALL (      16 calls)
     PAW_pot      :      6.02s CPU      6.02s WALL (      16 calls)
     mix_rho      :      1.34s CPU      1.38s WALL (      16 calls)

     Called by c_bands:
     init_us_2    :     12.55s CPU     12.61s WALL (    2205 calls)
     cegterg      :   1108.46s CPU   1114.27s WALL (    1008 calls)

     Called by *egterg:
     cdiaghg      :     23.54s CPU     23.66s WALL (    6640 calls)
     h_psi        :    965.15s CPU    970.77s WALL (    6766 calls)
     s_psi        :     43.48s CPU     43.54s WALL (    6766 calls)
     g_psi        :      1.86s CPU      1.87s WALL (    5695 calls)

     Called by h_psi:
     h_psi:calbec :     36.51s CPU     36.58s WALL (    6766 calls)
     vloc_psi     :    881.94s CPU    887.34s WALL (    6766 calls)
     add_vuspsi   :     43.30s CPU     43.37s WALL (    6766 calls)

     General routines
     calbec       :     48.70s CPU     48.82s WALL (    8089 calls)
     fft          :      7.08s CPU      7.34s WALL (     232 calls)
     ffts         :      0.17s CPU      0.17s WALL (      32 calls)
     fftw         :    883.40s CPU    888.69s WALL (  359242 calls)
     interpolate  :      0.55s CPU      0.56s WALL (      16 calls)
 
     Parallel routines
     fft_scatt_xy :    240.31s CPU    241.79s WALL (  359506 calls)
     fft_scatt_yz :    159.54s CPU    160.87s WALL (  359506 calls)
 
     PWSCF        :  26m 3.35s CPU  26m25.87s WALL

 
   This run was terminated on:  15:12:45  19Nov2021            

=------------------------------------------------------------------------------=
   JOB DONE.
=------------------------------------------------------------------------------=
