
     Program PWSCF v.6.7MaX starts on 19Nov2021 at 14:46:19 

     This program is part of the open-source Quantum ESPRESSO suite
     for quantum simulation of materials; please cite
         "P. Giannozzi et al., J. Phys.:Condens. Matter 21 395502 (2009);
         "P. Giannozzi et al., J. Phys.:Condens. Matter 29 465901 (2017);
          URL http://www.quantum-espresso.org", 
     in publications or presentations arising from this work. More details at
     http://www.quantum-espresso.org/quote

     Parallel version (MPI), running on    10 processors

     MPI processes distributed on     1 nodes
     R & G space division:  proc/nbgrp/npool/nimage =      10
     Waiting for input...
     Reading input from standard input

     Current dimensions of program PWSCF are:
     Max number of different atomic species (ntypx) = 10
     Max number of k-points (npk) =  40000
     Max angular momentum in pseudopotentials (lmaxx) =  3
     file Zr.pbe-spn-kjpaw_psl.1.0.0.UPF: wavefunction(s)  4S 4P renormalized
     file Te.pbe-n-kjpaw_psl.1.0.0.UPF: wavefunction(s)  5S 5P renormalized

     Subspace diagonalization in iterative solution of the eigenvalue problem:
     a serial algorithm will be used

     Message from routine setup:
     using ibrav=0 with symmetry is DISCOURAGED, use correct ibrav instead
 
     Parallelization info
     --------------------
     sticks:   dense  smooth     PW     G-vecs:    dense   smooth      PW
     Min         734     293     87               115340    29174    4753
     Max         735     295     88               115345    29176    4760
     Sum        7345    2937    873              1153415   291749   47557
 


     bravais-lattice index     =            0
     lattice parameter (alat)  =      15.5510  a.u.
     unit-cell volume          =    3018.5011 (a.u.)^3
     number of atoms/cell      =           12
     number of atomic types    =            2
     number of electrons       =        84.00
     number of Kohn-Sham states=           50
     kinetic-energy cutoff     =      80.0000  Ry
     charge density cutoff     =     800.0000  Ry
     scf convergence threshold =      1.0E-10
     mixing beta               =       0.7000
     number of iterations used =            8  plain     mixing
     Exchange-correlation= SLA  PW   PBX  PBC
                           (   1   4   3   4   0   0   0)

     celldm(1)=  15.551040  celldm(2)=   0.000000  celldm(3)=   0.000000
     celldm(4)=   0.000000  celldm(5)=   0.000000  celldm(6)=   0.000000

     crystal axes: (cart. coord. in units of alat)
               a(1) = (   0.246007  -0.969268   0.000000 )  
               a(2) = (   0.246007   0.969268   0.000000 )  
               a(3) = (   0.000000   0.000000   1.683031 )  

     reciprocal axes: (cart. coord. in units 2 pi/alat)
               b(1) = (  2.032465 -0.515853  0.000000 )  
               b(2) = (  2.032465  0.515853  0.000000 )  
               b(3) = (  0.000000  0.000000  0.594166 )  


     PseudoPot. # 1 for Zr read from file:
     pseudo/Zr.pbe-spn-kjpaw_psl.1.0.0.UPF
     MD5 check sum: 02112c41713a0468aff2bb39ef194e36
     Pseudo is Projector augmented-wave + core cor, Zval = 12.0
     Generated using &quot;atomic&quot; code by A. Dal Corso  v.6.2.2
     Shape of augmentation charge: PSQ
     Using radial grid of 1225 points,  6 beta functions with: 
                l(1) =   0
                l(2) =   0
                l(3) =   1
                l(4) =   1
                l(5) =   2
                l(6) =   2
     Q(r) pseudized with 0 coefficients 


     PseudoPot. # 2 for Te read from file:
     pseudo/Te.pbe-n-kjpaw_psl.1.0.0.UPF
     MD5 check sum: 66247bff2bd9dbf220fbb0bf5ab56e9d
     Pseudo is Projector augmented-wave + core cor, Zval =  6.0
     Generated using &quot;atomic&quot; code by A. Dal Corso  v.6.3
     Shape of augmentation charge: PSQ
     Using radial grid of 1245 points,  6 beta functions with: 
                l(1) =   0
                l(2) =   0
                l(3) =   1
                l(4) =   1
                l(5) =   2
                l(6) =   2
     Q(r) pseudized with 0 coefficients 


     atomic species   valence    mass     pseudopotential
        Zr            12.00    91.22000     Zr( 1.00)
        Te             6.00   127.60000     Te( 1.00)

      8 Sym. Ops., with inversion, found ( 4 have fractional translation)



   Cartesian axes

     site n.     atom                  positions (alat units)
         1           Zr  tau(   1) = (   0.0000000   0.5998654   0.4207578  )
         2           Zr  tau(   2) = (   0.2460067   0.3694027   1.2622733  )
         3           Te  tau(   3) = (   0.2460067   0.3341330   0.4207578  )
         4           Te  tau(   4) = (   0.0000000   0.6351351   1.2622733  )
         5           Te  tau(   5) = (   0.2460067   0.8124395   0.2538475  )
         6           Te  tau(   6) = (   0.0000000   0.1568286   1.4291836  )
         7           Te  tau(   7) = (   0.2460067   0.8124395   0.5876680  )
         8           Te  tau(   8) = (   0.0000000   0.1568286   1.0953630  )
         9           Te  tau(   9) = (   0.0000000   0.4249510   0.7404795  )
        10           Te  tau(  10) = (   0.2460067   0.5443172   0.9425516  )
        11           Te  tau(  11) = (   0.0000000   0.4249510   0.1010360  )
        12           Te  tau(  12) = (   0.2460067   0.5443172   1.5819950  )

     number of k points=    63  Methfessel-Paxton smearing, width (Ry)=  0.0030
                       cart. coord. in units 2pi/alat
        k(    1) = (   0.0000000   0.0000000   0.0000000), wk =   0.0078125
        k(    2) = (   0.0000000   0.0000000   0.1485415), wk =   0.0156250
        k(    3) = (   0.0000000   0.0000000  -0.2970830), wk =   0.0078125
        k(    4) = (   0.2540581   0.0644816   0.0000000), wk =   0.0312500
        k(    5) = (   0.2540581   0.0644816   0.1485415), wk =   0.0625000
        k(    6) = (   0.2540581   0.0644816  -0.2970830), wk =   0.0312500
        k(    7) = (   0.5081162   0.1289633   0.0000000), wk =   0.0312500
        k(    8) = (   0.5081162   0.1289633   0.1485415), wk =   0.0625000
        k(    9) = (   0.5081162   0.1289633  -0.2970830), wk =   0.0312500
        k(   10) = (   0.7621743   0.1934449   0.0000000), wk =   0.0312500
        k(   11) = (   0.7621743   0.1934449   0.1485415), wk =   0.0625000
        k(   12) = (   0.7621743   0.1934449  -0.2970830), wk =   0.0312500
        k(   13) = (  -1.0162324  -0.2579266   0.0000000), wk =   0.0156250
        k(   14) = (  -1.0162324  -0.2579266   0.1485415), wk =   0.0312500
        k(   15) = (  -1.0162324  -0.2579266  -0.2970830), wk =   0.0156250
        k(   16) = (   0.5081162   0.0000000   0.0000000), wk =   0.0156250
        k(   17) = (   0.5081162   0.0000000   0.1485415), wk =   0.0312500
        k(   18) = (   0.5081162   0.0000000  -0.2970830), wk =   0.0156250
        k(   19) = (   0.7621743   0.0644816   0.0000000), wk =   0.0312500
        k(   20) = (   0.7621743   0.0644816   0.1485415), wk =   0.0625000
        k(   21) = (   0.7621743   0.0644816  -0.2970830), wk =   0.0312500
        k(   22) = (   1.0162324   0.1289633   0.0000000), wk =   0.0312500
        k(   23) = (   1.0162324   0.1289633   0.1485415), wk =   0.0625000
        k(   24) = (   1.0162324   0.1289633  -0.2970830), wk =   0.0312500
        k(   25) = (  -0.7621743  -0.3224082   0.0000000), wk =   0.0312500
        k(   26) = (  -0.7621743  -0.3224082   0.1485415), wk =   0.0625000
        k(   27) = (  -0.7621743  -0.3224082  -0.2970830), wk =   0.0312500
        k(   28) = (  -0.5081162  -0.2579266   0.0000000), wk =   0.0312500
        k(   29) = (  -0.5081162  -0.2579266   0.1485415), wk =   0.0625000
        k(   30) = (  -0.5081162  -0.2579266  -0.2970830), wk =   0.0312500
        k(   31) = (  -0.2540581  -0.1934449   0.0000000), wk =   0.0312500
        k(   32) = (  -0.2540581  -0.1934449   0.1485415), wk =   0.0625000
        k(   33) = (  -0.2540581  -0.1934449  -0.2970830), wk =   0.0312500
        k(   34) = (   0.0000000  -0.1289633   0.0000000), wk =   0.0156250
        k(   35) = (   0.0000000  -0.1289633   0.1485415), wk =   0.0312500
        k(   36) = (   0.0000000  -0.1289633  -0.2970830), wk =   0.0156250
        k(   37) = (   1.0162324   0.0000000   0.0000000), wk =   0.0156250
        k(   38) = (   1.0162324   0.0000000   0.1485415), wk =   0.0312500
        k(   39) = (   1.0162324   0.0000000  -0.2970830), wk =   0.0156250
        k(   40) = (   1.2702905   0.0644816   0.0000000), wk =   0.0312500
        k(   41) = (   1.2702905   0.0644816   0.1485415), wk =   0.0625000
        k(   42) = (   1.2702905   0.0644816  -0.2970830), wk =   0.0312500
        k(   43) = (  -0.5081162  -0.3868899   0.0000000), wk =   0.0312500
        k(   44) = (  -0.5081162  -0.3868899   0.1485415), wk =   0.0625000
        k(   45) = (  -0.5081162  -0.3868899  -0.2970830), wk =   0.0312500
        k(   46) = (  -0.2540581  -0.3224082   0.0000000), wk =   0.0312500
        k(   47) = (  -0.2540581  -0.3224082   0.1485415), wk =   0.0625000
        k(   48) = (  -0.2540581  -0.3224082  -0.2970830), wk =   0.0312500
        k(   49) = (   0.0000000  -0.2579266   0.0000000), wk =   0.0156250
        k(   50) = (   0.0000000  -0.2579266   0.1485415), wk =   0.0312500
        k(   51) = (   0.0000000  -0.2579266  -0.2970830), wk =   0.0156250
        k(   52) = (   1.5243485   0.0000000   0.0000000), wk =   0.0156250
        k(   53) = (   1.5243485   0.0000000   0.1485415), wk =   0.0312500
        k(   54) = (   1.5243485   0.0000000  -0.2970830), wk =   0.0156250
        k(   55) = (  -0.2540581  -0.4513715   0.0000000), wk =   0.0312500
        k(   56) = (  -0.2540581  -0.4513715   0.1485415), wk =   0.0625000
        k(   57) = (  -0.2540581  -0.4513715  -0.2970830), wk =   0.0312500
        k(   58) = (   0.0000000  -0.3868899   0.0000000), wk =   0.0156250
        k(   59) = (   0.0000000  -0.3868899   0.1485415), wk =   0.0312500
        k(   60) = (   0.0000000  -0.3868899  -0.2970830), wk =   0.0156250
        k(   61) = (  -2.0324647   0.0000000   0.0000000), wk =   0.0078125
        k(   62) = (  -2.0324647   0.0000000   0.1485415), wk =   0.0156250
        k(   63) = (  -2.0324647   0.0000000  -0.2970830), wk =   0.0078125

     Dense  grid:  1153415 G-vectors     FFT dimensions: ( 144, 144, 240)

     Smooth grid:   291749 G-vectors     FFT dimensions: (  90,  90, 150)

     Estimated max dynamical RAM per process >     657.19 MB

     Estimated total dynamical RAM >       6.42 GB

     Initial potential from superposition of free atoms

     starting charge   83.99353, renormalised to   84.00000
     Starting wfcs are   66 randomized atomic wfcs
     Checking if some PAW data can be deallocated... 

     total cpu time spent up to now is       45.0 secs

     Self-consistent Calculation

     iteration #  1     ecut=    80.00 Ry     beta= 0.70
     Davidson diagonalization with overlap
     ethr =  1.00E-02,  avg # of iterations =  2.2

     Threshold (ethr) on eigenvalues was too large:
     Diagonalizing with lowered threshold

     Davidson diagonalization with overlap
     ethr =  4.70E-04,  avg # of iterations =  3.9

     total cpu time spent up to now is      206.2 secs

     total energy              =   -4240.69806996 Ry
     estimated scf accuracy    <       0.45390761 Ry

     iteration #  2     ecut=    80.00 Ry     beta= 0.70
     Davidson diagonalization with overlap
     ethr =  5.40E-04,  avg # of iterations =  8.2

     total cpu time spent up to now is      320.0 secs

     total energy              =   -4240.59332229 Ry
     estimated scf accuracy    <       2.05962944 Ry

     iteration #  3     ecut=    80.00 Ry     beta= 0.70
     Davidson diagonalization with overlap
     ethr =  5.40E-04,  avg # of iterations =  5.2

     total cpu time spent up to now is      414.0 secs

     total energy              =   -4240.91707617 Ry
     estimated scf accuracy    <       0.00788234 Ry

     iteration #  4     ecut=    80.00 Ry     beta= 0.70
     Davidson diagonalization with overlap
     c_bands:  1 eigenvalues not converged
     c_bands:  1 eigenvalues not converged
     c_bands:  2 eigenvalues not converged
     c_bands:  2 eigenvalues not converged
     c_bands:  1 eigenvalues not converged
     c_bands:  1 eigenvalues not converged
     c_bands:  1 eigenvalues not converged
     c_bands:  1 eigenvalues not converged
     c_bands:  1 eigenvalues not converged
     c_bands:  1 eigenvalues not converged
     c_bands:  1 eigenvalues not converged
     c_bands:  1 eigenvalues not converged
     c_bands:  2 eigenvalues not converged
     c_bands:  1 eigenvalues not converged
     c_bands:  1 eigenvalues not converged
     c_bands:  1 eigenvalues not converged
     c_bands:  1 eigenvalues not converged
     c_bands:  3 eigenvalues not converged
     c_bands:  3 eigenvalues not converged
     c_bands:  1 eigenvalues not converged
     c_bands:  1 eigenvalues not converged
     c_bands:  1 eigenvalues not converged
     c_bands:  1 eigenvalues not converged
     ethr =  9.38E-06,  avg # of iterations = 17.7

     total cpu time spent up to now is      595.3 secs

     total energy              =   -4240.92693005 Ry
     estimated scf accuracy    <       0.04306151 Ry

     iteration #  5     ecut=    80.00 Ry     beta= 0.70
     Davidson diagonalization with overlap
     ethr =  9.38E-06,  avg # of iterations =  6.7

     total cpu time spent up to now is      688.9 secs

     total energy              =   -4240.92879085 Ry
     estimated scf accuracy    <       0.00729300 Ry

     iteration #  6     ecut=    80.00 Ry     beta= 0.70
     Davidson diagonalization with overlap
     ethr =  8.68E-06,  avg # of iterations =  3.0

     total cpu time spent up to now is      765.0 secs

     total energy              =   -4240.92931284 Ry
     estimated scf accuracy    <       0.00116813 Ry

     iteration #  7     ecut=    80.00 Ry     beta= 0.70
     Davidson diagonalization with overlap
     c_bands:  1 eigenvalues not converged
     ethr =  1.39E-06,  avg # of iterations =  9.7

     total cpu time spent up to now is      881.8 secs

     total energy              =   -4240.92982422 Ry
     estimated scf accuracy    <       0.00100059 Ry

     iteration #  8     ecut=    80.00 Ry     beta= 0.70
     Davidson diagonalization with overlap
     ethr =  1.19E-06,  avg # of iterations =  2.3

     total cpu time spent up to now is      951.1 secs

     total energy              =   -4240.92985877 Ry
     estimated scf accuracy    <       0.00013892 Ry

     iteration #  9     ecut=    80.00 Ry     beta= 0.70
     Davidson diagonalization with overlap
     ethr =  1.65E-07,  avg # of iterations =  6.2

     total cpu time spent up to now is     1043.0 secs

     total energy              =   -4240.92990573 Ry
     estimated scf accuracy    <       0.00002151 Ry

     iteration # 10     ecut=    80.00 Ry     beta= 0.70
     Davidson diagonalization with overlap
     ethr =  2.56E-08,  avg # of iterations =  3.1

     total cpu time spent up to now is     1116.8 secs

     total energy              =   -4240.92990851 Ry
     estimated scf accuracy    <       0.00000169 Ry

     iteration # 11     ecut=    80.00 Ry     beta= 0.70
     Davidson diagonalization with overlap
     ethr =  2.01E-09,  avg # of iterations =  7.6

     total cpu time spent up to now is     1223.1 secs

     total energy              =   -4240.92990990 Ry
     estimated scf accuracy    <       0.00000078 Ry

     iteration # 12     ecut=    80.00 Ry     beta= 0.70
     Davidson diagonalization with overlap
     ethr =  9.33E-10,  avg # of iterations =  2.6

     total cpu time spent up to now is     1294.5 secs

     total energy              =   -4240.92990995 Ry
     estimated scf accuracy    <       0.00000011 Ry

     iteration # 13     ecut=    80.00 Ry     beta= 0.70
     Davidson diagonalization with overlap
     ethr =  1.32E-10,  avg # of iterations =  6.2

     total cpu time spent up to now is     1388.0 secs

     total energy              =   -4240.92991000 Ry
     estimated scf accuracy    <       0.00000002 Ry

     iteration # 14     ecut=    80.00 Ry     beta= 0.70
     Davidson diagonalization with overlap
     ethr =  2.89E-11,  avg # of iterations =  2.1

     total cpu time spent up to now is     1456.6 secs

     total energy              =   -4240.92991000 Ry
     estimated scf accuracy    <       0.00000001 Ry

     iteration # 15     ecut=    80.00 Ry     beta= 0.70
     Davidson diagonalization with overlap
     ethr =  1.29E-11,  avg # of iterations =  4.8

     total cpu time spent up to now is     1536.2 secs

     End of self-consistent calculation

          k = 0.0000 0.0000 0.0000 ( 36359 PWs)   bands (ev):

   -44.1520 -44.1520 -22.2639 -22.2638 -22.1749 -22.1749 -22.0894 -22.0892
    -8.3143  -8.1348  -7.1332  -6.9748  -6.0549  -5.3993  -4.7799  -4.7310
    -4.6630  -3.7540   0.1987   0.8078   0.8418   1.1673   1.2498   1.5313
     1.7326   1.8291   2.2588   2.8201   2.9159   2.9696   3.2223   3.4016
     3.8793   3.9675   4.1102   4.1120   4.3398   4.3788   4.4919   4.6754
     4.7508   5.2436   5.6230   5.8571   5.8655   5.9260   6.1056   6.6864
     7.1241   7.2843

          k = 0.0000 0.0000 0.1485 ( 36415 PWs)   bands (ev):

   -44.1520 -44.1520 -22.2639 -22.2638 -22.1749 -22.1749 -22.0894 -22.0893
    -8.2920  -8.1662  -7.1025  -6.9920  -5.9940  -5.5636  -4.7697  -4.7375
    -4.4712  -3.8604   0.2779   0.8473   0.9199   0.9432   1.1248   1.7453
     1.8133   1.8473   1.9948   2.8366   2.9041   3.0031   3.3715   3.4880
     3.8201   4.0136   4.0785   4.1278   4.2973   4.3851   4.4908   4.6913
     4.7418   4.8253   5.8271   5.8559   5.8564   6.2411   6.2597   6.5551
     6.9288   7.0973

          k = 0.0000 0.0000-0.2971 ( 36410 PWs)   bands (ev):

   -44.1520 -44.1520 -22.2639 -22.2639 -22.1749 -22.1749 -22.0893 -22.0893
    -8.2336  -8.2336  -7.0406  -7.0406  -5.8171  -5.8171  -4.7533  -4.7533
    -4.1349  -4.1349   0.5108   0.5108   0.9874   0.9874   1.3517   1.3517
     1.7777   1.7777   2.5316   2.5316   2.8727   2.8727   3.6288   3.6288
     3.9313   3.9313   4.1397   4.1397   4.2862   4.2862   4.4652   4.4652
     4.7189   4.7189   5.8460   5.8460   6.2068   6.2068   6.5652   6.5652
     6.7272   6.7272

          k = 0.2541 0.0645 0.0000 ( 36396 PWs)   bands (ev):

   -44.1516 -44.1516 -22.2619 -22.2619 -22.1844 -22.1844 -22.0883 -22.0882
    -8.1870  -8.0095  -7.0695  -6.9252  -5.9970  -5.3508  -4.7414  -4.7182
    -4.6839  -3.9440   0.2756   0.8154   0.9173   0.9649   1.2492   1.4309
     1.4513   1.5324   1.7610   2.5996   2.6330   3.1789   3.3171   3.6936
     3.7796   3.8012   3.8961   3.9264   4.0890   4.2773   4.3427   4.4431
     4.4652   4.6172   5.9567   5.9829   6.1492   6.4108   6.4484   6.7205
     7.0566   7.2452

          k = 0.2541 0.0645 0.1485 ( 36423 PWs)   bands (ev):

   -44.1516 -44.1516 -22.2619 -22.2619 -22.1844 -22.1844 -22.0883 -22.0882
    -8.1650  -8.0406  -7.0414  -6.9408  -5.9361  -5.5127  -4.7318  -4.6932
    -4.5408  -4.0270   0.3435   0.7333   0.8940   1.0036   1.1210   1.2194
     1.5333   1.7107   2.0502   2.6020   2.6154   2.9386   3.4271   3.4524
     3.5161   3.8656   3.9765   4.0463   4.0734   4.2327   4.4219   4.4670
     4.6595   4.7344   5.8928   6.0167   6.1113   6.2136   6.2617   6.8258
     7.2116   7.2318

          k = 0.2541 0.0645-0.2971 ( 36436 PWs)   bands (ev):

   -44.1516 -44.1516 -22.2619 -22.2619 -22.1844 -22.1844 -22.0883 -22.0883
    -8.1073  -8.1073  -6.9850  -6.9850  -5.7609  -5.7609  -4.7125  -4.7125
    -4.2504  -4.2504   0.5284   0.5284   0.9224   0.9224   1.1148   1.1148
     1.7046   1.7046   2.4842   2.4842   2.6462   2.6462   3.2909   3.2909
     3.6930   3.6930   4.0224   4.0224   4.1837   4.1837   4.4538   4.4538
     4.9011   4.9011   5.7884   5.7884   6.1343   6.1343   6.4844   6.4844
     7.3501   7.3502

          k = 0.5081 0.1290 0.0000 ( 36499 PWs)   bands (ev):

   -44.1508 -44.1507 -22.2572 -22.2572 -22.2073 -22.2073 -22.0857 -22.0856
    -7.8139  -7.6408  -6.9172  -6.8026  -5.8343  -5.2296  -4.9860  -4.6182
    -4.5712  -4.4961  -0.0529   0.4033   0.7161   0.9096   1.1610   1.3110
     1.6347   1.7181   1.7398   2.0752   2.1406   2.4318   2.5940   3.4380
     3.4643   3.5629   3.5730   3.7049   3.7631   3.8541   4.0109   4.2405
     4.2998   4.8346   5.8968   6.1877   6.3045   6.6121   6.6545   7.0744
     7.4227   7.5473

          k = 0.5081 0.1290 0.1485 ( 36476 PWs)   bands (ev):

   -44.1507 -44.1507 -22.2572 -22.2572 -22.2073 -22.2073 -22.0857 -22.0856
    -7.7926  -7.6715  -6.8947  -6.8151  -5.7766  -5.3932  -4.8529  -4.6113
    -4.5947  -4.5055   0.0043   0.3597   0.7877   0.8229   1.1515   1.2492
     1.4021   1.5862   2.0015   2.0895   2.3003   2.5126   2.8797   3.3491
     3.4582   3.4953   3.5436   3.7051   3.7679   3.7988   3.8898   4.2629
     4.3037   4.4612   6.2622   6.3160   6.4484   6.6115   6.7173   6.9483
     7.2806   7.5273

          k = 0.5081 0.1290-0.2971 ( 36466 PWs)   bands (ev):

   -44.1507 -44.1507 -22.2572 -22.2572 -22.2073 -22.2073 -22.0857 -22.0857
    -7.7366  -7.7366  -6.8501  -6.8501  -5.6160  -5.6160  -4.7044  -4.7044
    -4.5461  -4.5461   0.1704   0.1704   0.9401   0.9401   0.9832   0.9832
     1.4705   1.4705   2.0551   2.0551   2.6452   2.6452   3.1871   3.1871
     3.3855   3.3855   3.5895   3.5895   3.7670   3.7670   3.9304   3.9304
     4.3463   4.3463   6.4941   6.4941   6.5732   6.5732   6.8934   6.8934
     7.2660   7.2660

          k = 0.7622 0.1934 0.0000 ( 36521 PWs)   bands (ev):

   -44.1499 -44.1499 -22.2525 -22.2525 -22.2300 -22.2300 -22.0831 -22.0831
    -7.2347  -7.0549  -6.7736  -6.6609  -5.7329  -5.5535  -5.1545  -5.1253
    -4.4903  -4.4519  -0.2669   0.0257   0.1532   0.9007   0.9135   1.3048
     1.4903   1.5957   2.0176   2.1630   2.2262   2.2705   2.4624   2.8148
     3.0058   3.2279   3.3569   3.4435   3.5240   3.6674   3.7209   3.7556
     3.8814   4.5908   6.2206   6.4789   6.5926   6.9562   6.9799   7.0336
     7.3992   7.6298

          k = 0.7622 0.1934 0.1485 ( 36503 PWs)   bands (ev):

   -44.1499 -44.1499 -22.2525 -22.2525 -22.2300 -22.2300 -22.0831 -22.0831
    -7.2144  -7.0907  -6.7487  -6.6725  -5.7030  -5.5750  -5.1549  -5.1359
    -4.4831  -4.4562  -0.2300   0.0628   0.1459   0.7678   0.9420   1.2511
     1.4989   1.5948   1.9978   2.0263   2.1652   2.5647   2.7094   2.9021
     2.9615   3.0218   3.2734   3.3424   3.5080   3.5995   3.7697   3.9298
     3.9911   4.4624   6.0598   6.4586   6.7647   6.9155   7.0462   7.1059
     7.2028   7.6697

          k = 0.7622 0.1934-0.2971 ( 36522 PWs)   bands (ev):

   -44.1499 -44.1499 -22.2525 -22.2525 -22.2300 -22.2300 -22.0831 -22.0831
    -7.1592  -7.1592  -6.7050  -6.7050  -5.6349  -5.6349  -5.1507  -5.1507
    -4.4683  -4.4683  -0.1068  -0.1068   0.4403   0.4403   1.0767   1.0767
     1.5542   1.5542   1.9884   1.9884   2.4506   2.4506   2.8510   2.8510
     2.9539   2.9539   3.2613   3.2613   3.5929   3.5929   3.9657   3.9657
     4.0798   4.0798   6.4161   6.4161   6.5448   6.5448   7.0776   7.0776
     7.5831   7.5832

          k =-1.0162-0.2579 0.0000 ( 36506 PWs)   bands (ev):

   -44.1495 -44.1495 -22.2505 -22.2505 -22.2394 -22.2394 -22.0820 -22.0820
    -6.7731  -6.7517  -6.3253  -6.3163  -6.3133  -6.3123  -5.1648  -5.1643
    -4.4320  -4.4016  -0.1647  -0.1464   0.1394   0.1607   1.0120   1.0192
     1.4666   1.6572   2.2047   2.3646   2.3918   2.4198   2.7862   2.8395
     2.8483   2.8922   3.1746   3.2260   3.2914   3.3464   3.4309   3.6051
     3.9930   4.2462   6.6946   6.7624   6.8414   6.8572   7.1312   7.2277
     7.2283   7.3029

          k =-1.0162-0.2579 0.1485 ( 36506 PWs)   bands (ev):

   -44.1495 -44.1495 -22.2505 -22.2505 -22.2394 -22.2394 -22.0820 -22.0820
    -6.7676  -6.7522  -6.3640  -6.3569  -6.2775  -6.2731  -5.1633  -5.1630
    -4.4296  -4.4081  -0.2554  -0.2497   0.3209   0.3292   1.0078   1.0163
     1.4584   1.5888   2.0836   2.2230   2.3318   2.3908   2.6344   2.6588
     2.9226   3.0190   3.1149   3.2170   3.5003   3.5449   3.5816   3.6889
     4.1148   4.2640   6.3188   6.3411   6.5981   6.6756   7.2410   7.2470
     7.4637   7.5348

          k =-1.0162-0.2579-0.2971 ( 36528 PWs)   bands (ev):

   -44.1495 -44.1495 -22.2505 -22.2505 -22.2394 -22.2394 -22.0820 -22.0820
    -6.7574  -6.7574  -6.3793  -6.3793  -6.2587  -6.2587  -5.1618  -5.1618
    -4.4210  -4.4210  -0.3127  -0.3127   0.4888   0.4888   0.9827   0.9827
     1.5007   1.5007   1.9678   1.9678   2.3401   2.3401   2.7548   2.7548
     2.8013   2.8013   3.2070   3.2070   3.6245   3.6245   3.7701   3.7701
     4.3149   4.3149   5.9779   5.9779   6.5384   6.5384   7.2557   7.2557
     7.6050   7.6051

          k = 0.5081 0.0000 0.0000 ( 36503 PWs)   bands (ev):

   -44.1508 -44.1507 -22.2572 -22.2572 -22.2073 -22.2073 -22.0857 -22.0856
    -7.8156  -7.6412  -6.9174  -6.8019  -5.8314  -5.2288  -4.9838  -4.6112
    -4.5793  -4.4956  -0.0486   0.3963   0.7170   0.9232   1.1573   1.2693
     1.6292   1.7059   1.7269   2.0825   2.1359   2.4203   2.5976   3.4300
     3.4839   3.5861   3.5918   3.6819   3.7759   3.9027   3.9904   4.2777
     4.3032   4.8242   5.9033   6.1631   6.3360   6.5758   6.6021   7.1131
     7.4269   7.5738

          k = 0.5081 0.0000 0.1485 ( 36453 PWs)   bands (ev):

   -44.1507 -44.1507 -22.2572 -22.2572 -22.2073 -22.2073 -22.0857 -22.0856
    -7.7942  -7.6722  -6.8945  -6.8143  -5.7742  -5.3923  -4.8497  -4.6118
    -4.5933  -4.5079   0.0076   0.3539   0.7943   0.8245   1.1598   1.2340
     1.3642   1.5641   2.0010   2.1051   2.2858   2.5007   2.8813   3.3638
     3.4777   3.4837   3.5560   3.7333   3.7478   3.8549   3.8580   4.2974
     4.3229   4.4422   6.2485   6.3259   6.4671   6.5686   6.6790   6.9827
     7.2927   7.5454

          k = 0.5081 0.0000-0.2971 ( 36452 PWs)   bands (ev):

   -44.1507 -44.1507 -22.2572 -22.2572 -22.2073 -22.2073 -22.0857 -22.0857
    -7.7378  -7.7378  -6.8494  -6.8494  -5.6145  -5.6145  -4.7012  -4.7012
    -4.5484  -4.5484   0.1704   0.1704   0.9388   0.9388   0.9871   0.9871
     1.4369   1.4369   2.0597   2.0597   2.6344   2.6344   3.1930   3.1930
     3.3947   3.3947   3.5918   3.5918   3.7987   3.7987   3.9159   3.9159
     4.3635   4.3635   6.5076   6.5076   6.5381   6.5381   6.9113   6.9113
     7.2679   7.2679

          k = 0.7622 0.0645 0.0000 ( 36505 PWs)   bands (ev):

   -44.1499 -44.1499 -22.2525 -22.2525 -22.2300 -22.2300 -22.0831 -22.0831
    -7.2392  -7.0557  -6.7708  -6.6582  -5.7335  -5.5516  -5.1532  -5.1257
    -4.4789  -4.4640  -0.2586   0.0240   0.1613   0.8913   0.9431   1.3179
     1.4612   1.5571   1.9802   2.1509   2.2629   2.2872   2.4044   2.7906
     2.9968   3.2699   3.3639   3.4508   3.5914   3.7007   3.7042   3.7218
     3.8433   4.6109   6.2182   6.4487   6.6195   6.9534   6.9932   7.0110
     7.4049   7.6737

          k = 0.7622 0.0645 0.1485 ( 36509 PWs)   bands (ev):

   -44.1499 -44.1499 -22.2525 -22.2525 -22.2300 -22.2300 -22.0831 -22.0831
    -7.2185  -7.0925  -6.7454  -6.6695  -5.7035  -5.5739  -5.1538  -5.1358
    -4.4751  -4.4648  -0.2218   0.0716   0.1419   0.7579   0.9688   1.2635
     1.4717   1.5906   1.9704   1.9790   2.1551   2.5641   2.7116   2.8907
     2.9532   3.0254   3.3106   3.3458   3.5519   3.5893   3.7448   3.9643
     3.9733   4.4542   6.0841   6.4345   6.7833   6.9154   7.0215   7.1434
     7.1760   7.6991

          k = 0.7622 0.0645-0.2971 ( 36472 PWs)   bands (ev):

   -44.1499 -44.1499 -22.2525 -22.2525 -22.2300 -22.2300 -22.0831 -22.0831
    -7.1624  -7.1624  -6.7014  -6.7014  -5.6349  -5.6349  -5.1499  -5.1499
    -4.4684  -4.4684  -0.0988  -0.0988   0.4339   0.4339   1.0952   1.0952
     1.5496   1.5496   1.9351   1.9351   2.4513   2.4513   2.8560   2.8560
     2.9305   2.9305   3.3088   3.3088   3.5896   3.5896   3.9899   3.9899
     4.0489   4.0489   6.4445   6.4445   6.5428   6.5428   7.0484   7.0484
     7.6102   7.6102

          k = 1.0162 0.1290 0.0000 ( 36514 PWs)   bands (ev):

   -44.1495 -44.1495 -22.2505 -22.2505 -22.2394 -22.2394 -22.0820 -22.0820
    -6.7731  -6.7517  -6.3252  -6.3163  -6.3134  -6.3123  -5.1648  -5.1643
    -4.4320  -4.4016  -0.1703  -0.1407   0.1370   0.1631   1.0033   1.0286
     1.4738   1.6467   2.2004   2.3716   2.3985   2.4114   2.7617   2.8526
     2.8818   2.8843   3.1868   3.1958   3.2895   3.3315   3.4653   3.5947
     3.9753   4.2638   6.6882   6.7727   6.8225   6.8760   7.1571   7.2275
     7.2304   7.2799

          k = 1.0162 0.1290 0.1485 ( 36524 PWs)   bands (ev):

   -44.1495 -44.1495 -22.2505 -22.2505 -22.2394 -22.2394 -22.0820 -22.0820
    -6.7676  -6.7522  -6.3640  -6.3569  -6.2775  -6.2731  -5.1633  -5.1630
    -4.4296  -4.4081  -0.2578  -0.2476   0.3220   0.3285   1.0052   1.0189
     1.4651   1.5819   2.0905   2.2067   2.3355   2.3919   2.6188   2.6812
     2.9158   3.0314   3.1160   3.2093   3.5019   3.5154   3.6193   3.6810
     4.0941   4.2834   6.3150   6.3509   6.5944   6.6778   7.2429   7.2470
     7.4739   7.5254

          k = 1.0162 0.1290-0.2971 ( 36516 PWs)   bands (ev):

   -44.1495 -44.1495 -22.2505 -22.2505 -22.2394 -22.2394 -22.0820 -22.0820
    -6.7574  -6.7574  -6.3793  -6.3793  -6.2587  -6.2587  -5.1618  -5.1618
    -4.4210  -4.4210  -0.3128  -0.3128   0.4891   0.4891   0.9825   0.9825
     1.5019   1.5019   1.9683   1.9683   2.3350   2.3350   2.7322   2.7322
     2.8333   2.8333   3.1995   3.1995   3.6261   3.6261   3.7697   3.7697
     4.3156   4.3156   5.9810   5.9810   6.5375   6.5375   7.2564   7.2564
     7.6056   7.6057

          k =-0.7622-0.3224 0.0000 ( 36511 PWs)   bands (ev):

   -44.1499 -44.1499 -22.2525 -22.2525 -22.2300 -22.2300 -22.0831 -22.0831
    -7.2283  -7.0538  -6.7780  -6.6643  -5.7321  -5.5562  -5.1562  -5.1248
    -4.4991  -4.4423  -0.2785   0.0287   0.1411   0.8801   0.9137   1.2890
     1.5028   1.6660   2.0936   2.1824   2.2093   2.2461   2.4712   2.8523
     3.0143   3.2025   3.3442   3.4377   3.4982   3.6211   3.6933   3.7002
     4.0106   4.5549   6.2239   6.5145   6.5763   6.8762   7.0194   7.1024
     7.3797   7.5692

          k =-0.7622-0.3224 0.1485 ( 36492 PWs)   bands (ev):

   -44.1499 -44.1499 -22.2525 -22.2525 -22.2300 -22.2300 -22.0831 -22.0831
    -7.2084  -7.0883  -6.7538  -6.6766  -5.7022  -5.5766  -5.1564  -5.1360
    -4.4892  -4.4495  -0.2414   0.0518   0.1502   0.7815   0.9110   1.2337
     1.5245   1.6093   2.0214   2.1088   2.1887   2.5640   2.6814   2.9251
     2.9622   3.0452   3.2420   3.3160   3.4752   3.5801   3.7785   3.8792
     4.0440   4.4720   6.0280   6.4966   6.7313   6.9125   7.0473   7.1236
     7.2260   7.6069

          k =-0.7622-0.3224-0.2971 ( 36508 PWs)   bands (ev):

   -44.1499 -44.1499 -22.2525 -22.2525 -22.2300 -22.2300 -22.0831 -22.0831
    -7.1547  -7.1547  -6.7102  -6.7102  -5.6348  -5.6348  -5.1518  -5.1518
    -4.4681  -4.4681  -0.1179  -0.1179   0.4488   0.4488   1.0546   1.0546
     1.5618   1.5618   2.0547   2.0547   2.4603   2.4603   2.8459   2.8459
     2.9858   2.9858   3.1962   3.1962   3.5902   3.5902   3.9209   3.9209
     4.1336   4.1336   6.3815   6.3815   6.5446   6.5446   7.1236   7.1236
     7.5283   7.5284

          k =-0.5081-0.2579 0.0000 ( 36480 PWs)   bands (ev):

   -44.1508 -44.1507 -22.2572 -22.2572 -22.2073 -22.2073 -22.0857 -22.0856
    -7.8097  -7.6399  -6.9172  -6.8040  -5.8415  -5.2313  -4.9916  -4.6282
    -4.5583  -4.4973  -0.0631   0.4199   0.7135   0.8831   1.1700   1.4147
     1.6443   1.7565   1.7717   2.0622   2.1409   2.4558   2.5832   3.3824
     3.4613   3.5334   3.5663   3.6967   3.7351   3.7698   4.0652   4.1502
     4.2892   4.8572   5.8838   6.2139   6.2636   6.7051   6.7805   6.9848
     7.4063   7.4879

          k =-0.5081-0.2579 0.1485 ( 36485 PWs)   bands (ev):

   -44.1507 -44.1507 -22.2572 -22.2572 -22.2073 -22.2073 -22.0857 -22.0856
    -7.7888  -7.6699  -6.8955  -6.8168  -5.7826  -5.3954  -4.8604  -4.6099
    -4.5980  -4.5001  -0.0033   0.3735   0.7767   0.8138   1.1434   1.2760
     1.4997   1.6484   1.9904   2.0631   2.3295   2.5369   2.8746   3.2915
     3.4409   3.5015   3.5252   3.6625   3.6971   3.7781   3.9529   4.1814
     4.2685   4.4933   6.2807   6.2973   6.4137   6.7057   6.8193   6.8754
     7.2439   7.4900

          k =-0.5081-0.2579-0.2971 ( 36478 PWs)   bands (ev):

   -44.1507 -44.1507 -22.2572 -22.2572 -22.2073 -22.2073 -22.0857 -22.0857
    -7.7337  -7.7337  -6.8518  -6.8518  -5.6197  -5.6197  -4.7119  -4.7119
    -4.5408  -4.5408   0.1704   0.1704   0.9432   0.9432   0.9749   0.9749
     1.5594   1.5594   2.0380   2.0380   2.6779   2.6779   3.1536   3.1536
     3.3680   3.3680   3.5736   3.5736   3.7115   3.7115   3.9609   3.9609
     4.3075   4.3075   6.4620   6.4620   6.6509   6.6509   6.8533   6.8533
     7.2684   7.2684

          k =-0.2541-0.1934 0.0000 ( 36410 PWs)   bands (ev):

   -44.1516 -44.1516 -22.2619 -22.2619 -22.1844 -22.1844 -22.0883 -22.0882
    -8.1841  -8.0089  -7.0662  -6.9254  -6.0082  -5.3551  -4.7651  -4.7133
    -4.6682  -3.9447   0.2980   0.8069   0.9250   1.0284   1.2706   1.4403
     1.4768   1.5772   1.7801   2.5697   2.6230   3.1764   3.3713   3.6745
     3.7324   3.7592   3.8897   3.9103   3.9194   4.2031   4.3022   4.3816
     4.4086   4.6602   6.0151   6.0295   6.2325   6.3991   6.4702   6.7784
     7.0231   7.1703

          k =-0.2541-0.1934 0.1485 ( 36427 PWs)   bands (ev):

   -44.1516 -44.1516 -22.2619 -22.2619 -22.1844 -22.1844 -22.0883 -22.0882
    -8.1624  -8.0395  -7.0390  -6.9409  -5.9459  -5.5175  -4.7469  -4.6851
    -4.5375  -4.0271   0.3662   0.7337   0.8994   1.0692   1.1417   1.2540
     1.5411   1.7221   2.0850   2.5700   2.6110   2.9393   3.4381   3.4841
     3.5356   3.7908   3.8659   3.9105   4.0321   4.1992   4.3844   4.4101
     4.6232   4.7761   5.9002   6.0261   6.1264   6.2888   6.3344   6.8232
     7.1730   7.2244

          k =-0.2541-0.1934-0.2971 ( 36422 PWs)   bands (ev):

   -44.1516 -44.1516 -22.2619 -22.2619 -22.1844 -22.1844 -22.0883 -22.0883
    -8.1052  -8.1052  -6.9843  -6.9843  -5.7679  -5.7679  -4.7156  -4.7156
    -4.2493  -4.2493   0.5469   0.5469   0.9330   0.9330   1.1621   1.1621
     1.7138   1.7138   2.4872   2.4872   2.6468   2.6468   3.2949   3.2949
     3.7162   3.7162   3.8530   3.8530   4.1587   4.1587   4.4002   4.4002
     4.9178   4.9178   5.7665   5.7665   6.1903   6.1903   6.5129   6.5129
     7.3403   7.3403

          k = 0.0000-0.1290 0.0000 ( 36417 PWs)   bands (ev):

   -44.1520 -44.1520 -22.2639 -22.2638 -22.1749 -22.1749 -22.0894 -22.0892
    -8.3128  -8.1344  -7.1307  -6.9747  -6.0621  -5.4024  -4.7890  -4.7265
    -4.6601  -3.7543   0.2133   0.8105   0.8824   1.1789   1.2613   1.5643
     1.7324   1.8287   2.2557   2.8270   2.9197   2.9704   3.2216   3.4405
     3.8574   3.9561   3.9762   4.0131   4.2865   4.3791   4.4462   4.6620
     4.7494   5.2242   5.6412   5.9041   5.9180   5.9516   6.1137   6.7053
     7.1242   7.2254

          k = 0.0000-0.1290 0.1485 ( 36419 PWs)   bands (ev):

   -44.1520 -44.1520 -22.2639 -22.2638 -22.1749 -22.1749 -22.0894 -22.0893
    -8.2906  -8.1656  -7.1005  -6.9918  -6.0005  -5.5669  -4.7782  -4.7320
    -4.4705  -3.8605   0.2932   0.8859   0.9289   0.9500   1.1462   1.7450
     1.8129   1.8521   2.0121   2.8431   2.9083   3.0081   3.3562   3.5280
     3.8251   3.9494   4.0027   4.0094   4.2928   4.3305   4.4477   4.6833
     4.7402   4.8192   5.8520   5.8825   5.9064   6.2476   6.2684   6.5708
     6.9301   7.0569

          k = 0.0000-0.1290-0.2971 ( 36464 PWs)   bands (ev):

   -44.1520 -44.1520 -22.2639 -22.2639 -22.1749 -22.1749 -22.0893 -22.0893
    -8.2325  -8.2325  -7.0397  -7.0397  -5.8218  -5.8218  -4.7548  -4.7548
    -4.1346  -4.1346   0.5284   0.5284   1.0133   1.0133   1.3562   1.3562
     1.7774   1.7774   2.5444   2.5444   2.8780   2.8780   3.6382   3.6382
     3.8702   3.8702   4.1308   4.1308   4.2038   4.2038   4.4419   4.4419
     4.7158   4.7158   5.8826   5.8826   6.2209   6.2209   6.5688   6.5688
     6.7137   6.7137

          k = 1.0162 0.0000 0.0000 ( 36499 PWs)   bands (ev):

   -44.1495 -44.1495 -22.2505 -22.2505 -22.2394 -22.2394 -22.0820 -22.0820
    -6.7731  -6.7517  -6.3250  -6.3163  -6.3135  -6.3123  -5.1648  -5.1643
    -4.4320  -4.4016  -0.1743  -0.1367   0.1350   0.1652   0.9989   1.0338
     1.4821   1.6351   2.1965   2.3850   2.3965   2.4049   2.7491   2.8661
     2.8673   2.9137   3.1572   3.2249   3.2797   3.3086   3.5031   3.5775
     3.9596   4.2794   6.6829   6.7819   6.8122   6.8861   7.2075   7.2278
     7.2320   7.2326

          k = 1.0162 0.0000 0.1485 ( 36485 PWs)   bands (ev):

   -44.1495 -44.1495 -22.2505 -22.2505 -22.2394 -22.2394 -22.0820 -22.0820
    -6.7676  -6.7522  -6.3639  -6.3570  -6.2775  -6.2732  -5.1633  -5.1630
    -4.4296  -4.4081  -0.2595  -0.2461   0.3236   0.3274   1.0034   1.0207
     1.4727   1.5740   2.0991   2.1894   2.3406   2.3905   2.6129   2.6930
     2.9126   3.0409   3.1190   3.1999   3.4911   3.5129   3.6542   3.6616
     4.0767   4.2993   6.3130   6.3588   6.5909   6.6797   7.2453   7.2466
     7.4934   7.5067

          k = 1.0162 0.0000-0.2971 ( 36514 PWs)   bands (ev):

   -44.1495 -44.1495 -22.2505 -22.2505 -22.2394 -22.2394 -22.0820 -22.0820
    -6.7574  -6.7574  -6.3793  -6.3793  -6.2587  -6.2587  -5.1618  -5.1618
    -4.4210  -4.4210  -0.3129  -0.3129   0.4894   0.4894   0.9823   0.9823
     1.5031   1.5031   1.9688   1.9688   2.3300   2.3300   2.7193   2.7193
     2.8561   2.8561   3.1915   3.1915   3.6276   3.6276   3.7693   3.7693
     4.3162   4.3162   5.9841   5.9841   6.5366   6.5366   7.2572   7.2572
     7.6062   7.6063

          k = 1.2703 0.0645 0.0000 ( 36468 PWs)   bands (ev):

   -44.1499 -44.1499 -22.2525 -22.2525 -22.2300 -22.2300 -22.0831 -22.0831
    -7.2236  -7.0530  -6.7815  -6.6664  -5.7316  -5.5581  -5.1573  -5.1246
    -4.5037  -4.4370  -0.2865   0.0313   0.1320   0.8605   0.9229   1.2790
     1.5036   1.7182   2.1681   2.2028   2.2230   2.2260   2.4139   2.8828
     3.0155   3.1945   3.3723   3.4242   3.5081   3.5741   3.6262   3.6772
     4.1092   4.5190   6.2263   6.5244   6.5907   6.8179   7.0489   7.1698
     7.3480   7.5476

          k = 1.2703 0.0645 0.1485 ( 36490 PWs)   bands (ev):

   -44.1499 -44.1499 -22.2525 -22.2525 -22.2300 -22.2300 -22.0831 -22.0831
    -7.2041  -7.0865  -6.7577  -6.6793  -5.7017  -5.5778  -5.1574  -5.1362
    -4.4924  -4.4458  -0.2494   0.0447   0.1524   0.7910   0.8924   1.2225
     1.5338   1.6259   2.0362   2.1590   2.2272   2.5681   2.6337   2.9479
     2.9600   3.0774   3.2276   3.2821   3.4856   3.5336   3.7744   3.8402
     4.0965   4.4765   6.0075   6.5278   6.7015   6.9089   7.0295   7.1862
     7.2277   7.5536

          k = 1.2703 0.0645-0.2971 ( 36480 PWs)   bands (ev):

   -44.1499 -44.1499 -22.2525 -22.2525 -22.2300 -22.2300 -22.0831 -22.0831
    -7.1514  -7.1514  -6.7139  -6.7139  -5.6347  -5.6347  -5.1525  -5.1525
    -4.4680  -4.4680  -0.1255  -0.1255   0.4544   0.4544   1.0413   1.0413
     1.5678   1.5678   2.0936   2.0936   2.4786   2.4786   2.8441   2.8441
     3.0042   3.0042   3.1527   3.1527   3.5832   3.5832   3.8871   3.8871
     4.1736   4.1736   6.3598   6.3598   6.5434   6.5434   7.1605   7.1605
     7.4751   7.4755

          k =-0.5081-0.3869 0.0000 ( 36463 PWs)   bands (ev):

   -44.1508 -44.1507 -22.2572 -22.2572 -22.2073 -22.2073 -22.0857 -22.0856
    -7.8054  -7.6391  -6.9177  -6.8048  -5.8487  -5.2329  -4.9972  -4.6346
    -4.5490  -4.4985  -0.0731   0.4359   0.7103   0.8619   1.1790   1.5402
     1.6550   1.7823   1.8048   2.0406   2.1628   2.4549   2.5694   3.2872
     3.4939   3.5389   3.5731   3.5739   3.7264   3.7595   4.0254   4.1470
     4.2764   4.8766   5.8733   6.1374   6.3291   6.8074   6.8981   6.9163
     7.3674   7.4512

          k =-0.5081-0.3869 0.1485 ( 36477 PWs)   bands (ev):

   -44.1507 -44.1507 -22.2572 -22.2572 -22.2073 -22.2073 -22.0857 -22.0856
    -7.7848  -7.6683  -6.8967  -6.8180  -5.7886  -5.3974  -4.8678  -4.6081
    -4.6015  -4.4952  -0.0107   0.3870   0.7728   0.7972   1.1422   1.2977
     1.6226   1.7219   1.9568   2.0340   2.3812   2.5316   2.8665   3.2177
     3.4176   3.5026   3.5196   3.5838   3.6977   3.7487   3.9954   4.1273
     4.2282   4.5202   6.2285   6.3351   6.3941   6.7752   6.8111   6.9614
     7.1883   7.4727

          k =-0.5081-0.3869-0.2971 ( 36492 PWs)   bands (ev):

   -44.1507 -44.1507 -22.2572 -22.2572 -22.2073 -22.2073 -22.0857 -22.0857
    -7.7307  -7.7307  -6.8536  -6.8536  -5.6234  -5.6234  -4.7190  -4.7190
    -4.5358  -4.5358   0.1703   0.1703   0.9473   0.9473   0.9664   0.9664
     1.6696   1.6696   2.0033   2.0033   2.7266   2.7266   3.0784   3.0784
     3.3610   3.3610   3.5484   3.5484   3.6825   3.6825   3.9813   3.9813
     4.2772   4.2772   6.4313   6.4313   6.7004   6.7004   6.8316   6.8316
     7.2904   7.2904

          k =-0.2541-0.3224 0.0000 ( 36485 PWs)   bands (ev):

   -44.1516 -44.1516 -22.2619 -22.2619 -22.1844 -22.1844 -22.0883 -22.0882
    -8.1800  -8.0080  -7.0620  -6.9248  -6.0243  -5.3611  -4.7891  -4.7046
    -4.6571  -3.9457   0.3231   0.7980   0.9333   1.1350   1.3074   1.4598
     1.5130   1.6552   1.8102   2.5049   2.5797   3.1965   3.4575   3.5741
     3.6251   3.6637   3.7579   3.9133   3.9479   4.1349   4.1822   4.3000
     4.3642   4.7129   6.0772   6.1081   6.2918   6.4198   6.5025   6.8517
     6.9447   7.0892

          k =-0.2541-0.3224 0.1485 ( 36445 PWs)   bands (ev):

   -44.1516 -44.1516 -22.2619 -22.2619 -22.1844 -22.1844 -22.0883 -22.0882
    -8.1586  -8.0379  -7.0361  -6.9404  -5.9600  -5.5241  -4.7635  -4.6780
    -4.5336  -4.0273   0.3917   0.7342   0.9048   1.1421   1.2154   1.3113
     1.5575   1.7465   2.1404   2.5078   2.5707   2.9589   3.4293   3.4888
     3.5912   3.6117   3.6654   3.9090   3.9713   4.1379   4.3068   4.3581
     4.6078   4.8144   5.9056   6.0310   6.1538   6.3515   6.4397   6.7922
     7.1510   7.2096

          k =-0.2541-0.3224-0.2971 ( 36442 PWs)   bands (ev):

   -44.1516 -44.1516 -22.2619 -22.2619 -22.1844 -22.1844 -22.0883 -22.0883
    -8.1024  -8.1024  -6.9833  -6.9833  -5.7777  -5.7777  -4.7201  -4.7201
    -4.2476  -4.2476   0.5674   0.5674   0.9441   0.9441   1.2519   1.2519
     1.7325   1.7325   2.4798   2.4798   2.6443   2.6443   3.2938   3.2938
     3.5897   3.5897   3.8138   3.8138   4.0986   4.0986   4.3384   4.3384
     4.9391   4.9391   5.7438   5.7438   6.2197   6.2197   6.5640   6.5640
     7.3316   7.3316

          k = 0.0000-0.2579 0.0000 ( 36445 PWs)   bands (ev):

   -44.1520 -44.1520 -22.2639 -22.2638 -22.1749 -22.1749 -22.0894 -22.0892
    -8.3091  -8.1337  -7.1250  -6.9740  -6.0798  -5.4098  -4.8082  -4.7154
    -4.6565  -3.7551   0.2429   0.8182   0.9902   1.2324   1.2878   1.6350
     1.7318   1.8278   2.2489   2.8444   2.9286   2.9794   3.2156   3.5476
     3.6152   3.6902   3.9281   3.9688   4.1599   4.3194   4.3799   4.6297
     4.7462   5.1938   5.6855   5.9890   6.0038   6.0186   6.1334   6.7434
     7.0883   7.1242

          k = 0.0000-0.2579 0.1485 ( 36452 PWs)   bands (ev):

   -44.1520 -44.1520 -22.2639 -22.2639 -22.1749 -22.1749 -22.0894 -22.0893
    -8.2872  -8.1642  -7.0961  -6.9908  -6.0162  -5.5750  -4.7937  -4.7236
    -4.4689  -3.8607   0.3240   0.9295   0.9547   1.0333   1.2046   1.7444
     1.8121   1.8632   2.0553   2.8593   2.9185   3.0200   3.3268   3.5613
     3.6818   3.7088   3.9128   3.9760   4.2066   4.2811   4.3290   4.6650
     4.7365   4.8144   5.9048   5.9421   5.9827   6.2634   6.2854   6.5982
     6.9332   6.9574

          k = 0.0000-0.2579-0.2971 ( 36454 PWs)   bands (ev):

   -44.1520 -44.1520 -22.2639 -22.2639 -22.1749 -22.1749 -22.0893 -22.0893
    -8.2299  -8.2299  -7.0377  -7.0377  -5.8332  -5.8332  -4.7585  -4.7585
    -4.1338  -4.1338   0.5636   0.5636   1.0926   1.0926   1.3692   1.3692
     1.7767   1.7767   2.5768   2.5768   2.8913   2.8913   3.5400   3.5400
     3.7820   3.7820   4.0978   4.0978   4.1087   4.1087   4.3789   4.3789
     4.7087   4.7087   5.9386   5.9386   6.2568   6.2568   6.5779   6.5779
     6.6705   6.6705

          k = 1.5243 0.0000 0.0000 ( 36439 PWs)   bands (ev):

   -44.1507 -44.1507 -22.2572 -22.2572 -22.2073 -22.2073 -22.0857 -22.0856
    -7.8037  -7.6387  -6.9181  -6.8049  -5.8518  -5.2336  -4.9996  -4.6367
    -4.5457  -4.4990  -0.0772   0.4424   0.7086   0.8541   1.1827   1.6089
     1.6736   1.7596   1.8190   2.0296   2.1959   2.4328   2.5628   3.2545
     3.5081   3.5120   3.5563   3.5764   3.7051   3.7784   3.9681   4.1758
     4.2707   4.8836   5.8694   6.1028   6.3607   6.8540   6.8623   6.9820
     7.3338   7.4996

          k = 1.5243 0.0000 0.1485 ( 36476 PWs)   bands (ev):

   -44.1508 -44.1507 -22.2572 -22.2572 -22.2073 -22.2073 -22.0857 -22.0856
    -7.7832  -7.6676  -6.8973  -6.8184  -5.7912  -5.3983  -4.8708  -4.6070
    -4.6033  -4.4932  -0.0138   0.3924   0.7796   0.7818   1.1427   1.3058
     1.7181   1.7259   1.9392   2.0090   2.4507   2.4793   2.8605   3.1940
     3.3835   3.5044   3.5257   3.5680   3.7031   3.7333   3.9824   4.1391
     4.2032   4.5311   6.2024   6.3523   6.3898   6.7508   6.8430   7.0355
     7.1454   7.4939

          k = 1.5243 0.0000-0.2971 ( 36508 PWs)   bands (ev):

   -44.1508 -44.1508 -22.2572 -22.2572 -22.2073 -22.2073 -22.0857 -22.0857
    -7.7295  -7.7295  -6.8544  -6.8544  -5.6249  -5.6249  -4.7218  -4.7218
    -4.5339  -4.5339   0.1702   0.1702   0.9502   0.9502   0.9618   0.9618
     1.7299   1.7299   1.9757   1.9757   2.7577   2.7577   3.0281   3.0281
     3.3617   3.3617   3.5382   3.5382   3.6752   3.6752   3.9848   3.9848
     4.2690   4.2690   6.4188   6.4188   6.7038   6.7038   6.8352   6.8352
     7.3101   7.3101

          k =-0.2541-0.4514 0.0000 ( 36444 PWs)   bands (ev):

   -44.1516 -44.1516 -22.2619 -22.2619 -22.1844 -22.1844 -22.0883 -22.0882
    -8.1771  -8.0074  -7.0595  -6.9238  -6.0358  -5.3653  -4.8032  -4.6975
    -4.6530  -3.9464   0.3359   0.7932   0.9380   1.2445   1.3139   1.4758
     1.5386   1.7348   1.8444   2.4360   2.5092   3.2488   3.4240   3.4667
     3.5191   3.6512   3.8266   3.9163   3.9622   4.0219   4.0996   4.2407
     4.3511   4.7465   6.1031   6.1874   6.2947   6.4616   6.5255   6.8605
     6.8982   7.0498

          k =-0.2541-0.4514 0.1485 ( 36461 PWs)   bands (ev):

   -44.1516 -44.1516 -22.2619 -22.2619 -22.1844 -22.1844 -22.0883 -22.0882
    -8.1559  -8.0368  -7.0344  -6.9397  -5.9700  -5.5287  -4.7738  -4.6741
    -4.5311  -4.0274   0.4050   0.7347   0.9071   1.1758   1.3008   1.3624
     1.5764   1.7756   2.1978   2.4416   2.4958   2.9929   3.3639   3.4132
     3.5204   3.5607   3.7525   3.9037   3.9427   4.0121   4.2702   4.3355
     4.6003   4.8390   5.9086   6.0289   6.1852   6.3746   6.5066   6.7484
     7.1574   7.1980

          k =-0.2541-0.4514-0.2971 ( 36490 PWs)   bands (ev):

   -44.1516 -44.1516 -22.2619 -22.2619 -22.1844 -22.1844 -22.0883 -22.0883
    -8.1003  -8.1003  -6.9825  -6.9825  -5.7847  -5.7847  -4.7233  -4.7233
    -4.2465  -4.2465   0.5783   0.5783   0.9495   0.9495   1.3344   1.3344
     1.7536   1.7536   2.4523   2.4523   2.6447   2.6447   3.2723   3.2723
     3.4670   3.4670   3.8805   3.8805   4.0177   4.0177   4.3061   4.3061
     4.9531   4.9531   5.7307   5.7307   6.2207   6.2207   6.5991   6.5991
     7.3299   7.3300

          k = 0.0000-0.3869 0.0000 ( 36477 PWs)   bands (ev):

   -44.1520 -44.1520 -22.2639 -22.2638 -22.1749 -22.1749 -22.0894 -22.0892
    -8.3053  -8.1329  -7.1198  -6.9723  -6.0978  -5.4171  -4.8248  -4.7023
    -4.6574  -3.7559   0.2638   0.8275   1.1348   1.2959   1.3120   1.7106
     1.7312   1.8269   2.2434   2.8633   2.9370   2.9992   3.1710   3.3003
     3.4696   3.7041   3.8997   3.9841   4.0240   4.1492   4.3805   4.5977
     4.7432   5.1735   5.7300   6.0468   6.0584   6.1012   6.1533   6.7572
     6.9610   7.1241

          k = 0.0000-0.3869 0.1485 ( 36452 PWs)   bands (ev):

   -44.1520 -44.1520 -22.2639 -22.2639 -22.1749 -22.1749 -22.0894 -22.0893
    -8.2838  -8.1628  -7.0922  -6.9893  -6.0320  -5.5829  -4.8064  -4.7177
    -4.4675  -3.8609   0.3455   0.9560   0.9712   1.1798   1.2766   1.7438
     1.8112   1.8750   2.1038   2.8767   2.9285   3.0194   3.2273   3.3388
     3.4887   3.7914   3.9423   3.9489   4.0830   4.1692   4.2681   4.6480
     4.7330   4.8132   5.9597   5.9912   6.0267   6.2796   6.2975   6.5994
     6.8652   6.9363

          k = 0.0000-0.3869-0.2971 ( 36454 PWs)   bands (ev):

   -44.1520 -44.1520 -22.2639 -22.2639 -22.1749 -22.1749 -22.0893 -22.0893
    -8.2273  -8.2273  -7.0356  -7.0356  -5.8446  -5.8446  -4.7622  -4.7622
    -4.1329  -4.1329   0.5884   0.5884   1.2000   1.2000   1.3874   1.3874
     1.7760   1.7760   2.6117   2.6117   2.9050   2.9050   3.2783   3.2783
     3.8350   3.8350   4.0216   4.0216   4.0858   4.0858   4.3190   4.3190
     4.7021   4.7021   5.9681   5.9681   6.2940   6.2940   6.5873   6.5873
     6.6154   6.6154

          k =-2.0325 0.0000 0.0000 ( 36452 PWs)   bands (ev):

   -44.1520 -44.1520 -22.2639 -22.2639 -22.1749 -22.1749 -22.0894 -22.0892
    -8.3038  -8.1326  -7.1178  -6.9713  -6.1054  -5.4200  -4.8312  -4.6955
    -4.6597  -3.7563   0.2699   0.8318   1.2603   1.2664   1.3215   1.7309
     1.7552   1.8265   2.2416   2.8716   2.9403   3.0112   3.0958   3.1838
     3.4121   3.8692   3.8878   3.8962   3.9908   4.0481   4.3808   4.5845
     4.7420   5.1665   5.7482   6.0662   6.0746   6.1447   6.1616   6.7402
     6.9216   7.1240

          k =-2.0325 0.0000 0.1485 ( 36456 PWs)   bands (ev):

   -44.1520 -44.1520 -22.2639 -22.2639 -22.1749 -22.1749 -22.0894 -22.0893
    -8.2823  -8.1622  -7.0907  -6.9884  -6.0387  -5.5862  -4.8113  -4.7157
    -4.4669  -3.8610   0.3517   0.9699   0.9752   1.2720   1.2936   1.7435
     1.8109   1.8804   2.1292   2.8843   2.9325   2.9978   3.1164   3.2744
     3.4448   3.9031   3.9375   3.9553   4.0196   4.0569   4.2624   4.6414
     4.7316   4.8128   5.9815   6.0160   6.0366   6.2865   6.3019   6.5847
     6.8349   6.9375

          k =-2.0325 0.0000-0.2971 ( 36460 PWs)   bands (ev):

   -44.1520 -44.1520 -22.2639 -22.2639 -22.1749 -22.1749 -22.0893 -22.0893
    -8.2262  -8.2262  -7.0347  -7.0347  -5.8493  -5.8493  -4.7638  -4.7638
    -4.1326  -4.1326   0.5960   0.5960   1.2527   1.2527   1.3992   1.3992
     1.7757   1.7757   2.6274   2.6274   2.9108   2.9108   3.1550   3.1550
     3.8846   3.8846   3.9717   3.9717   4.0762   4.0762   4.2966   4.2966
     4.6995   4.6995   5.9756   5.9756   6.3099   6.3099   6.5896   6.5896
     6.5912   6.5912

     the Fermi energy is     5.2667 ev

!    total energy              =   -4240.92991000 Ry

     total all-electron energy =   -150287.623605 Ry
     estimated scf accuracy    <          3.4E-11 Ry
     smearing contrib. (-TS)   =       0.00000366 Ry
     internal energy E=F+TS    =   -4240.92991366 Ry

     The total energy is F=E-TS. E is the sum of the following terms:
     one-electron contribution =    -168.75725169 Ry
     hartree contribution      =     117.82663175 Ry
     xc contribution           =    -201.62654106 Ry
     ewald contribution        =    -220.83002712 Ry
     one-center paw contrib.   =   -3767.54272554 Ry

     convergence has been achieved in  15 iterations

     Forces acting on atoms (cartesian axes, Ry/au):

     atom    1 type  1   force =     0.00000000    0.01947279    0.00000000
     atom    2 type  1   force =     0.00000000   -0.01947279    0.00000000
     atom    3 type  2   force =    -0.00000000   -0.00022332    0.00000000
     atom    4 type  2   force =     0.00000000    0.00022332    0.00000000
     atom    5 type  2   force =     0.00000000   -0.00452182   -0.00288613
     atom    6 type  2   force =     0.00000000    0.00452182    0.00288613
     atom    7 type  2   force =     0.00000000   -0.00452182    0.00288613
     atom    8 type  2   force =     0.00000000    0.00452182   -0.00288613
     atom    9 type  2   force =     0.00000000   -0.03592891   -0.04181432
     atom   10 type  2   force =     0.00000000    0.03592891    0.04181432
     atom   11 type  2   force =     0.00000000   -0.03592891    0.04181432
     atom   12 type  2   force =     0.00000000    0.03592891   -0.04181432

     Total force =     0.114153     Total SCF correction =     0.000011


     Computing stress (Cartesian axis) and pressure

          total   stress  (Ry/bohr**3)                   (kbar)     P=        9.93
   0.00007857  -0.00000000   0.00000000           11.56       -0.00        0.00
   0.00000000   0.00003613   0.00000000            0.00        5.32        0.00
   0.00000000   0.00000000   0.00008779            0.00        0.00       12.91

 
     init_run     :     35.83s CPU     37.13s WALL (       1 calls)
     electrons    :   1475.28s CPU   1491.19s WALL (       1 calls)
     forces       :      7.60s CPU      7.89s WALL (       1 calls)
     stress       :     54.46s CPU     55.16s WALL (       1 calls)

     Called by init_run:
     wfcinit      :     30.83s CPU     31.11s WALL (       1 calls)
     potinit      :      1.54s CPU      1.60s WALL (       1 calls)
     hinit0       :      1.72s CPU      2.38s WALL (       1 calls)

     Called by electrons:
     c_bands      :   1186.56s CPU   1193.35s WALL (      16 calls)
     sum_band     :    259.63s CPU    265.01s WALL (      16 calls)
     v_of_rho     :      7.50s CPU      8.07s WALL (      16 calls)
     newd         :     15.43s CPU     18.83s WALL (      16 calls)
     PAW_pot      :      6.04s CPU      6.04s WALL (      16 calls)
     mix_rho      :      1.24s CPU      1.29s WALL (      16 calls)

     Called by c_bands:
     init_us_2    :     12.59s CPU     12.65s WALL (    2205 calls)
     cegterg      :   1118.70s CPU   1124.87s WALL (    1008 calls)

     Called by *egterg:
     cdiaghg      :     23.54s CPU     23.67s WALL (    6722 calls)
     h_psi        :    972.09s CPU    978.05s WALL (    6848 calls)
     s_psi        :     43.55s CPU     43.62s WALL (    6848 calls)
     g_psi        :      1.89s CPU      1.91s WALL (    5777 calls)

     Called by h_psi:
     h_psi:calbec :     37.10s CPU     37.18s WALL (    6848 calls)
     vloc_psi     :    888.24s CPU    893.99s WALL (    6848 calls)
     add_vuspsi   :     43.30s CPU     43.38s WALL (    6848 calls)

     General routines
     calbec       :     49.56s CPU     49.67s WALL (    8171 calls)
     fft          :      6.89s CPU      7.66s WALL (     232 calls)
     ffts         :      0.18s CPU      0.18s WALL (      32 calls)
     fftw         :    888.93s CPU    894.60s WALL (  362486 calls)
     interpolate  :      0.61s CPU      0.61s WALL (      16 calls)
 
     Parallel routines
     fft_scatt_xy :    237.95s CPU    239.50s WALL (  362750 calls)
     fft_scatt_yz :    167.19s CPU    168.57s WALL (  362750 calls)
 
     PWSCF        :  26m13.60s CPU  26m39.33s WALL

 
   This run was terminated on:  15:12:58  19Nov2021            

=------------------------------------------------------------------------------=
   JOB DONE.
=------------------------------------------------------------------------------=
