
     Program PWSCF v.6.7MaX starts on 19Nov2021 at 14:46:17 

     This program is part of the open-source Quantum ESPRESSO suite
     for quantum simulation of materials; please cite
         "P. Giannozzi et al., J. Phys.:Condens. Matter 21 395502 (2009);
         "P. Giannozzi et al., J. Phys.:Condens. Matter 29 465901 (2017);
          URL http://www.quantum-espresso.org", 
     in publications or presentations arising from this work. More details at
     http://www.quantum-espresso.org/quote

     Parallel version (MPI), running on    10 processors

     MPI processes distributed on     1 nodes
     R & G space division:  proc/nbgrp/npool/nimage =      10
     Waiting for input...
     Reading input from standard input

     Current dimensions of program PWSCF are:
     Max number of different atomic species (ntypx) = 10
     Max number of k-points (npk) =  40000
     Max angular momentum in pseudopotentials (lmaxx) =  3
     file Zr.pbe-spn-kjpaw_psl.1.0.0.UPF: wavefunction(s)  4S 4P renormalized
     file Te.pbe-n-kjpaw_psl.1.0.0.UPF: wavefunction(s)  5S 5P renormalized

     Subspace diagonalization in iterative solution of the eigenvalue problem:
     a serial algorithm will be used

     Message from routine setup:
     using ibrav=0 with symmetry is DISCOURAGED, use correct ibrav instead
 
     Parallelization info
     --------------------
     sticks:   dense  smooth     PW     G-vecs:    dense   smooth      PW
     Min         734     293     87               115340    29174    4753
     Max         735     295     88               115345    29176    4760
     Sum        7345    2937    873              1153415   291749   47557
 


     bravais-lattice index     =            0
     lattice parameter (alat)  =      15.5510  a.u.
     unit-cell volume          =    3018.5011 (a.u.)^3
     number of atoms/cell      =           12
     number of atomic types    =            2
     number of electrons       =        84.00
     number of Kohn-Sham states=           50
     kinetic-energy cutoff     =      80.0000  Ry
     charge density cutoff     =     800.0000  Ry
     scf convergence threshold =      1.0E-10
     mixing beta               =       0.7000
     number of iterations used =            8  plain     mixing
     Exchange-correlation= SLA  PW   PBX  PBC
                           (   1   4   3   4   0   0   0)

     celldm(1)=  15.551040  celldm(2)=   0.000000  celldm(3)=   0.000000
     celldm(4)=   0.000000  celldm(5)=   0.000000  celldm(6)=   0.000000

     crystal axes: (cart. coord. in units of alat)
               a(1) = (   0.246007  -0.969268   0.000000 )  
               a(2) = (   0.246007   0.969268   0.000000 )  
               a(3) = (   0.000000   0.000000   1.683031 )  

     reciprocal axes: (cart. coord. in units 2 pi/alat)
               b(1) = (  2.032465 -0.515853  0.000000 )  
               b(2) = (  2.032465  0.515853  0.000000 )  
               b(3) = (  0.000000  0.000000  0.594166 )  


     PseudoPot. # 1 for Zr read from file:
     pseudo/Zr.pbe-spn-kjpaw_psl.1.0.0.UPF
     MD5 check sum: 02112c41713a0468aff2bb39ef194e36
     Pseudo is Projector augmented-wave + core cor, Zval = 12.0
     Generated using &quot;atomic&quot; code by A. Dal Corso  v.6.2.2
     Shape of augmentation charge: PSQ
     Using radial grid of 1225 points,  6 beta functions with: 
                l(1) =   0
                l(2) =   0
                l(3) =   1
                l(4) =   1
                l(5) =   2
                l(6) =   2
     Q(r) pseudized with 0 coefficients 


     PseudoPot. # 2 for Te read from file:
     pseudo/Te.pbe-n-kjpaw_psl.1.0.0.UPF
     MD5 check sum: 66247bff2bd9dbf220fbb0bf5ab56e9d
     Pseudo is Projector augmented-wave + core cor, Zval =  6.0
     Generated using &quot;atomic&quot; code by A. Dal Corso  v.6.3
     Shape of augmentation charge: PSQ
     Using radial grid of 1245 points,  6 beta functions with: 
                l(1) =   0
                l(2) =   0
                l(3) =   1
                l(4) =   1
                l(5) =   2
                l(6) =   2
     Q(r) pseudized with 0 coefficients 


     atomic species   valence    mass     pseudopotential
        Zr            12.00    91.22000     Zr( 1.00)
        Te             6.00   127.60000     Te( 1.00)

      8 Sym. Ops., with inversion, found ( 4 have fractional translation)



   Cartesian axes

     site n.     atom                  positions (alat units)
         1           Zr  tau(   1) = (   0.0000000   0.5990908   0.4207578  )
         2           Zr  tau(   2) = (   0.2460067   0.3701773   1.2622733  )
         3           Te  tau(   3) = (   0.2460067   0.3341174   0.4207578  )
         4           Te  tau(   4) = (   0.0000000   0.6351507   1.2622733  )
         5           Te  tau(   5) = (   0.2460067   0.8127921   0.2540882  )
         6           Te  tau(   6) = (   0.0000000   0.1564760   1.4289429  )
         7           Te  tau(   7) = (   0.2460067   0.8127921   0.5874273  )
         8           Te  tau(   8) = (   0.0000000   0.1564760   1.0956037  )
         9           Te  tau(   9) = (   0.0000000   0.4263079   0.7417742  )
        10           Te  tau(  10) = (   0.2460067   0.5429602   0.9412569  )
        11           Te  tau(  11) = (   0.0000000   0.4263079   0.0997414  )
        12           Te  tau(  12) = (   0.2460067   0.5429602   1.5832897  )

     number of k points=    63  Methfessel-Paxton smearing, width (Ry)=  0.0030
                       cart. coord. in units 2pi/alat
        k(    1) = (   0.0000000   0.0000000   0.0000000), wk =   0.0078125
        k(    2) = (   0.0000000   0.0000000   0.1485415), wk =   0.0156250
        k(    3) = (   0.0000000   0.0000000  -0.2970830), wk =   0.0078125
        k(    4) = (   0.2540581   0.0644816   0.0000000), wk =   0.0312500
        k(    5) = (   0.2540581   0.0644816   0.1485415), wk =   0.0625000
        k(    6) = (   0.2540581   0.0644816  -0.2970830), wk =   0.0312500
        k(    7) = (   0.5081162   0.1289633   0.0000000), wk =   0.0312500
        k(    8) = (   0.5081162   0.1289633   0.1485415), wk =   0.0625000
        k(    9) = (   0.5081162   0.1289633  -0.2970830), wk =   0.0312500
        k(   10) = (   0.7621743   0.1934449   0.0000000), wk =   0.0312500
        k(   11) = (   0.7621743   0.1934449   0.1485415), wk =   0.0625000
        k(   12) = (   0.7621743   0.1934449  -0.2970830), wk =   0.0312500
        k(   13) = (  -1.0162324  -0.2579266   0.0000000), wk =   0.0156250
        k(   14) = (  -1.0162324  -0.2579266   0.1485415), wk =   0.0312500
        k(   15) = (  -1.0162324  -0.2579266  -0.2970830), wk =   0.0156250
        k(   16) = (   0.5081162   0.0000000   0.0000000), wk =   0.0156250
        k(   17) = (   0.5081162   0.0000000   0.1485415), wk =   0.0312500
        k(   18) = (   0.5081162   0.0000000  -0.2970830), wk =   0.0156250
        k(   19) = (   0.7621743   0.0644816   0.0000000), wk =   0.0312500
        k(   20) = (   0.7621743   0.0644816   0.1485415), wk =   0.0625000
        k(   21) = (   0.7621743   0.0644816  -0.2970830), wk =   0.0312500
        k(   22) = (   1.0162324   0.1289633   0.0000000), wk =   0.0312500
        k(   23) = (   1.0162324   0.1289633   0.1485415), wk =   0.0625000
        k(   24) = (   1.0162324   0.1289633  -0.2970830), wk =   0.0312500
        k(   25) = (  -0.7621743  -0.3224082   0.0000000), wk =   0.0312500
        k(   26) = (  -0.7621743  -0.3224082   0.1485415), wk =   0.0625000
        k(   27) = (  -0.7621743  -0.3224082  -0.2970830), wk =   0.0312500
        k(   28) = (  -0.5081162  -0.2579266   0.0000000), wk =   0.0312500
        k(   29) = (  -0.5081162  -0.2579266   0.1485415), wk =   0.0625000
        k(   30) = (  -0.5081162  -0.2579266  -0.2970830), wk =   0.0312500
        k(   31) = (  -0.2540581  -0.1934449   0.0000000), wk =   0.0312500
        k(   32) = (  -0.2540581  -0.1934449   0.1485415), wk =   0.0625000
        k(   33) = (  -0.2540581  -0.1934449  -0.2970830), wk =   0.0312500
        k(   34) = (   0.0000000  -0.1289633   0.0000000), wk =   0.0156250
        k(   35) = (   0.0000000  -0.1289633   0.1485415), wk =   0.0312500
        k(   36) = (   0.0000000  -0.1289633  -0.2970830), wk =   0.0156250
        k(   37) = (   1.0162324   0.0000000   0.0000000), wk =   0.0156250
        k(   38) = (   1.0162324   0.0000000   0.1485415), wk =   0.0312500
        k(   39) = (   1.0162324   0.0000000  -0.2970830), wk =   0.0156250
        k(   40) = (   1.2702905   0.0644816   0.0000000), wk =   0.0312500
        k(   41) = (   1.2702905   0.0644816   0.1485415), wk =   0.0625000
        k(   42) = (   1.2702905   0.0644816  -0.2970830), wk =   0.0312500
        k(   43) = (  -0.5081162  -0.3868899   0.0000000), wk =   0.0312500
        k(   44) = (  -0.5081162  -0.3868899   0.1485415), wk =   0.0625000
        k(   45) = (  -0.5081162  -0.3868899  -0.2970830), wk =   0.0312500
        k(   46) = (  -0.2540581  -0.3224082   0.0000000), wk =   0.0312500
        k(   47) = (  -0.2540581  -0.3224082   0.1485415), wk =   0.0625000
        k(   48) = (  -0.2540581  -0.3224082  -0.2970830), wk =   0.0312500
        k(   49) = (   0.0000000  -0.2579266   0.0000000), wk =   0.0156250
        k(   50) = (   0.0000000  -0.2579266   0.1485415), wk =   0.0312500
        k(   51) = (   0.0000000  -0.2579266  -0.2970830), wk =   0.0156250
        k(   52) = (   1.5243485   0.0000000   0.0000000), wk =   0.0156250
        k(   53) = (   1.5243485   0.0000000   0.1485415), wk =   0.0312500
        k(   54) = (   1.5243485   0.0000000  -0.2970830), wk =   0.0156250
        k(   55) = (  -0.2540581  -0.4513715   0.0000000), wk =   0.0312500
        k(   56) = (  -0.2540581  -0.4513715   0.1485415), wk =   0.0625000
        k(   57) = (  -0.2540581  -0.4513715  -0.2970830), wk =   0.0312500
        k(   58) = (   0.0000000  -0.3868899   0.0000000), wk =   0.0156250
        k(   59) = (   0.0000000  -0.3868899   0.1485415), wk =   0.0312500
        k(   60) = (   0.0000000  -0.3868899  -0.2970830), wk =   0.0156250
        k(   61) = (  -2.0324647   0.0000000   0.0000000), wk =   0.0078125
        k(   62) = (  -2.0324647   0.0000000   0.1485415), wk =   0.0156250
        k(   63) = (  -2.0324647   0.0000000  -0.2970830), wk =   0.0078125

     Dense  grid:  1153415 G-vectors     FFT dimensions: ( 144, 144, 240)

     Smooth grid:   291749 G-vectors     FFT dimensions: (  90,  90, 150)

     Estimated max dynamical RAM per process >     657.19 MB

     Estimated total dynamical RAM >       6.42 GB

     Initial potential from superposition of free atoms

     starting charge   83.99353, renormalised to   84.00000
     Starting wfcs are   66 randomized atomic wfcs
     Checking if some PAW data can be deallocated... 

     total cpu time spent up to now is       43.9 secs

     Self-consistent Calculation

     iteration #  1     ecut=    80.00 Ry     beta= 0.70
     Davidson diagonalization with overlap
     ethr =  1.00E-02,  avg # of iterations =  2.1

     Threshold (ethr) on eigenvalues was too large:
     Diagonalizing with lowered threshold

     Davidson diagonalization with overlap
     ethr =  4.80E-04,  avg # of iterations =  3.9

     total cpu time spent up to now is      200.9 secs

     total energy              =   -4240.68874781 Ry
     estimated scf accuracy    <       0.45705961 Ry

     iteration #  2     ecut=    80.00 Ry     beta= 0.70
     Davidson diagonalization with overlap
     ethr =  5.44E-04,  avg # of iterations =  8.2

     total cpu time spent up to now is      314.1 secs

     total energy              =   -4240.58234654 Ry
     estimated scf accuracy    <       2.06213926 Ry

     iteration #  3     ecut=    80.00 Ry     beta= 0.70
     Davidson diagonalization with overlap
     ethr =  5.44E-04,  avg # of iterations =  5.2

     total cpu time spent up to now is      407.6 secs

     total energy              =   -4240.91036230 Ry
     estimated scf accuracy    <       0.00786643 Ry

     iteration #  4     ecut=    80.00 Ry     beta= 0.70
     Davidson diagonalization with overlap
     c_bands:  2 eigenvalues not converged
     c_bands:  1 eigenvalues not converged
     c_bands:  1 eigenvalues not converged
     c_bands:  1 eigenvalues not converged
     c_bands:  1 eigenvalues not converged
     c_bands:  4 eigenvalues not converged
     c_bands:  1 eigenvalues not converged
     c_bands:  3 eigenvalues not converged
     c_bands:  2 eigenvalues not converged
     c_bands:  1 eigenvalues not converged
     c_bands:  3 eigenvalues not converged
     c_bands:  2 eigenvalues not converged
     c_bands:  2 eigenvalues not converged
     c_bands:  1 eigenvalues not converged
     c_bands:  1 eigenvalues not converged
     c_bands:  1 eigenvalues not converged
     c_bands:  1 eigenvalues not converged
     ethr =  9.36E-06,  avg # of iterations = 17.6

     total cpu time spent up to now is      585.2 secs

     total energy              =   -4240.91949435 Ry
     estimated scf accuracy    <       0.03657244 Ry

     iteration #  5     ecut=    80.00 Ry     beta= 0.70
     Davidson diagonalization with overlap
     ethr =  9.36E-06,  avg # of iterations =  7.0

     total cpu time spent up to now is      678.9 secs

     total energy              =   -4240.92134014 Ry
     estimated scf accuracy    <       0.00599117 Ry

     iteration #  6     ecut=    80.00 Ry     beta= 0.70
     Davidson diagonalization with overlap
     ethr =  7.13E-06,  avg # of iterations =  3.2

     total cpu time spent up to now is      755.1 secs

     total energy              =   -4240.92182902 Ry
     estimated scf accuracy    <       0.00096981 Ry

     iteration #  7     ecut=    80.00 Ry     beta= 0.70
     Davidson diagonalization with overlap
     ethr =  1.15E-06,  avg # of iterations =  8.6

     total cpu time spent up to now is      867.5 secs

     total energy              =   -4240.92225905 Ry
     estimated scf accuracy    <       0.00075703 Ry

     iteration #  8     ecut=    80.00 Ry     beta= 0.70
     Davidson diagonalization with overlap
     ethr =  9.01E-07,  avg # of iterations =  2.1

     total cpu time spent up to now is      937.2 secs

     total energy              =   -4240.92228229 Ry
     estimated scf accuracy    <       0.00010969 Ry

     iteration #  9     ecut=    80.00 Ry     beta= 0.70
     Davidson diagonalization with overlap
     ethr =  1.31E-07,  avg # of iterations =  6.1

     total cpu time spent up to now is     1026.9 secs

     total energy              =   -4240.92231792 Ry
     estimated scf accuracy    <       0.00001177 Ry

     iteration # 10     ecut=    80.00 Ry     beta= 0.70
     Davidson diagonalization with overlap
     ethr =  1.40E-08,  avg # of iterations =  4.3

     total cpu time spent up to now is     1104.7 secs

     total energy              =   -4240.92232032 Ry
     estimated scf accuracy    <       0.00000085 Ry

     iteration # 11     ecut=    80.00 Ry     beta= 0.70
     Davidson diagonalization with overlap
     ethr =  1.01E-09,  avg # of iterations =  7.7

     total cpu time spent up to now is     1211.4 secs

     total energy              =   -4240.92232109 Ry
     estimated scf accuracy    <       0.00000031 Ry

     iteration # 12     ecut=    80.00 Ry     beta= 0.70
     Davidson diagonalization with overlap
     ethr =  3.68E-10,  avg # of iterations =  3.3

     total cpu time spent up to now is     1285.4 secs

     total energy              =   -4240.92232113 Ry
     estimated scf accuracy    <       0.00000002 Ry

     iteration # 13     ecut=    80.00 Ry     beta= 0.70
     Davidson diagonalization with overlap
     ethr =  2.64E-11,  avg # of iterations =  8.3

     total cpu time spent up to now is     1396.1 secs

     total energy              =   -4240.92232115 Ry
     estimated scf accuracy    <       0.00000002 Ry

     iteration # 14     ecut=    80.00 Ry     beta= 0.70
     Davidson diagonalization with overlap
     ethr =  2.16E-11,  avg # of iterations =  2.0

     total cpu time spent up to now is     1464.7 secs

     total energy              =   -4240.92232115 Ry
     estimated scf accuracy    <          3.4E-09 Ry

     iteration # 15     ecut=    80.00 Ry     beta= 0.70
     Davidson diagonalization with overlap
     ethr =  4.06E-12,  avg # of iterations =  6.1

     total cpu time spent up to now is     1550.2 secs

     total energy              =   -4240.92232115 Ry
     estimated scf accuracy    <          9.1E-10 Ry

     iteration # 16     ecut=    80.00 Ry     beta= 0.70
     Davidson diagonalization with overlap
     ethr =  1.09E-12,  avg # of iterations =  1.9

     total cpu time spent up to now is     1606.8 secs

     total energy              =   -4240.92232115 Ry
     estimated scf accuracy    <          2.5E-10 Ry

     iteration # 17     ecut=    80.00 Ry     beta= 0.70
     Davidson diagonalization with overlap
     ethr =  2.99E-13,  avg # of iterations =  5.7

     total cpu time spent up to now is     1681.4 secs

     End of self-consistent calculation

          k = 0.0000 0.0000 0.0000 ( 36359 PWs)   bands (ev):

   -44.1559 -44.1559 -22.2660 -22.2659 -22.1774 -22.1774 -22.0944 -22.0942
    -8.3916  -8.2283  -7.1351  -6.9875  -6.0226  -5.3938  -4.7718  -4.7231
    -4.6228  -3.7397   0.1777   0.8223   0.8505   1.1729   1.2182   1.5281
     1.6367   1.7186   2.2570   2.8290   2.9167   2.9587   3.1950   3.4197
     3.9046   3.9880   4.1185   4.1284   4.3390   4.3961   4.5157   4.6596
     4.7622   5.1892   5.6181   5.8348   5.8468   5.9417   6.1443   6.6521
     7.1489   7.2798

          k = 0.0000 0.0000 0.1485 ( 36415 PWs)   bands (ev):

   -44.1559 -44.1559 -22.2660 -22.2659 -22.1774 -22.1774 -22.0943 -22.0942
    -8.3709  -8.2563  -7.1073  -7.0040  -5.9634  -5.5484  -4.7613  -4.7295
    -4.4407  -3.8443   0.2577   0.8385   0.9163   0.9552   1.1310   1.6477
     1.7055   1.8406   1.9884   2.8437   2.9056   2.9817   3.3601   3.5024
     3.8367   4.0324   4.0935   4.1378   4.3109   4.3905   4.5082   4.6860
     4.7519   4.7954   5.8132   5.8454   5.8480   6.2378   6.2741   6.5282
     6.9500   7.0837

          k = 0.0000 0.0000-0.2971 ( 36410 PWs)   bands (ev):

   -44.1559 -44.1559 -22.2659 -22.2659 -22.1774 -22.1774 -22.0943 -22.0943
    -8.3171  -8.3171  -7.0502  -7.0502  -5.7920  -5.7920  -4.7449  -4.7449
    -4.1137  -4.1137   0.4914   0.4914   0.9951   0.9951   1.3576   1.3576
     1.6755   1.6755   2.5144   2.5144   2.8765   2.8765   3.6441   3.6441
     3.9290   3.9290   4.1547   4.1547   4.2764   4.2764   4.4819   4.4819
     4.7241   4.7241   5.8333   5.8333   6.1947   6.1947   6.5894   6.5894
     6.6966   6.6966

          k = 0.2541 0.0645 0.0000 ( 36396 PWs)   bands (ev):

   -44.1556 -44.1556 -22.2640 -22.2640 -22.1869 -22.1869 -22.0933 -22.0931
    -8.2629  -8.1014  -7.0721  -6.9377  -5.9654  -5.3452  -4.7299  -4.6908
    -4.6737  -3.9366   0.2518   0.7360   0.9290   0.9729   1.2178   1.3705
     1.4093   1.5449   1.7538   2.6039   2.6388   3.1609   3.3366   3.6897
     3.7764   3.8084   3.9052   3.9409   4.0975   4.2865   4.3422   4.4471
     4.4845   4.6320   5.9756   5.9842   6.1402   6.3479   6.4206   6.7456
     7.0638   7.2537

          k = 0.2541 0.0645 0.1485 ( 36423 PWs)   bands (ev):

   -44.1556 -44.1556 -22.2640 -22.2640 -22.1869 -22.1869 -22.0933 -22.0932
    -8.2425  -8.1291  -7.0467  -6.9527  -5.9062  -5.4979  -4.7222  -4.6848
    -4.5183  -4.0179   0.3201   0.6768   0.8769   1.0101   1.0805   1.2181
     1.4689   1.7099   2.0297   2.6068   2.6219   2.9306   3.4347   3.4659
     3.5155   3.8766   3.9824   4.0574   4.0797   4.2441   4.4343   4.4879
     4.6416   4.7394   5.8972   6.0117   6.1070   6.2017   6.2384   6.8401
     7.2118   7.2254

          k = 0.2541 0.0645-0.2971 ( 36436 PWs)   bands (ev):

   -44.1556 -44.1556 -22.2640 -22.2640 -22.1869 -22.1869 -22.0932 -22.0932
    -8.1893  -8.1893  -6.9947  -6.9947  -5.7367  -5.7367  -4.7035  -4.7035
    -4.2363  -4.2363   0.5008   0.5008   0.8791   0.8791   1.1187   1.1187
     1.6660   1.6660   2.4799   2.4799   2.6450   2.6450   3.3024   3.3024
     3.7020   3.7020   4.0323   4.0323   4.1934   4.1934   4.4697   4.4697
     4.8866   4.8866   5.7820   5.7820   6.1276   6.1276   6.4944   6.4944
     7.3435   7.3435

          k = 0.5081 0.1290 0.0000 ( 36499 PWs)   bands (ev):

   -44.1547 -44.1547 -22.2593 -22.2593 -22.2096 -22.2096 -22.0907 -22.0906
    -7.8851  -7.7275  -6.9212  -6.8150  -5.8072  -5.2229  -4.9786  -4.6093
    -4.5624  -4.5063  -0.1205   0.3554   0.7287   0.8544   1.1615   1.3157
     1.6361   1.7068   1.7212   2.0720   2.1384   2.4550   2.6153   3.4444
     3.4486   3.5587   3.5852   3.7280   3.7606   3.8553   4.0221   4.2530
     4.2936   4.8094   5.9429   6.2058   6.3231   6.6135   6.6619   7.0923
     7.4111   7.5428

          k = 0.5081 0.1290 0.1485 ( 36476 PWs)   bands (ev):

   -44.1547 -44.1547 -22.2593 -22.2593 -22.2096 -22.2096 -22.0907 -22.0906
    -7.8653  -7.7547  -6.9011  -6.8270  -5.7514  -5.3803  -4.8500  -4.6066
    -4.5874  -4.5099  -0.0613   0.3020   0.7807   0.8101   1.1442   1.2351
     1.4039   1.5901   2.0001   2.0886   2.2866   2.5280   2.8919   3.3327
     3.4590   3.4958   3.5510   3.7174   3.7765   3.8057   3.9016   4.2682
     4.3089   4.4586   6.2779   6.3377   6.4591   6.6128   6.7300   6.9683
     7.2721   7.5269

          k = 0.5081 0.1290-0.2971 ( 36466 PWs)   bands (ev):

   -44.1547 -44.1547 -22.2593 -22.2593 -22.2096 -22.2096 -22.0907 -22.0907
    -7.8136  -7.8136  -6.8601  -6.8601  -5.5960  -5.5960  -4.7030  -4.7030
    -4.5433  -4.5433   0.1077   0.1077   0.9215   0.9215   0.9832   0.9832
     1.4766   1.4766   2.0555   2.0555   2.6364   2.6364   3.1875   3.1875
     3.3831   3.3831   3.5948   3.5948   3.7746   3.7746   3.9473   3.9473
     4.3533   4.3533   6.5073   6.5073   6.5743   6.5743   6.8970   6.8970
     7.2864   7.2864

          k = 0.7622 0.1934 0.0000 ( 36521 PWs)   bands (ev):

   -44.1538 -44.1538 -22.2546 -22.2546 -22.2323 -22.2323 -22.0881 -22.0881
    -7.2936  -7.1315  -6.7786  -6.6772  -5.7418  -5.5827  -5.1567  -5.1142
    -4.4809  -4.4422  -0.3073   0.0275   0.1006   0.8869   0.9043   1.3097
     1.4915   1.5942   2.0203   2.1374   2.2253   2.2923   2.4701   2.8179
     3.0199   3.2140   3.3550   3.4313   3.5311   3.6645   3.7124   3.7614
     3.8976   4.5958   6.2697   6.4970   6.6223   6.9697   6.9917   7.0437
     7.4058   7.6244

          k = 0.7622 0.1934 0.1485 ( 36503 PWs)   bands (ev):

   -44.1538 -44.1538 -22.2546 -22.2546 -22.2323 -22.2323 -22.0881 -22.0881
    -7.2745  -7.1619  -6.7580  -6.6884  -5.7149  -5.6015  -5.1551  -5.1263
    -4.4738  -4.4467  -0.2693   0.0150   0.1440   0.7537   0.9361   1.2535
     1.4996   1.5914   1.9913   2.0222   2.1823   2.5553   2.7142   2.9059
     2.9708   3.0155   3.2734   3.3325   3.5063   3.5959   3.7855   3.9297
     3.9959   4.4631   6.1119   6.4735   6.7796   6.9337   7.0530   7.1278
     7.2190   7.6729

          k = 0.7622 0.1934-0.2971 ( 36522 PWs)   bands (ev):

   -44.1538 -44.1538 -22.2546 -22.2546 -22.2323 -22.2323 -22.0881 -22.0881
    -7.2233  -7.2233  -6.7190  -6.7190  -5.6543  -5.6543  -5.1459  -5.1459
    -4.4590  -4.4590  -0.1481  -0.1481   0.4321   0.4321   1.0747   1.0747
     1.5529   1.5529   1.9821   1.9821   2.4608   2.4608   2.8546   2.8546
     2.9481   2.9481   3.2553   3.2553   3.5906   3.5906   3.9681   3.9681
     4.0918   4.0918   6.4529   6.4529   6.5587   6.5587   7.0866   7.0866
     7.5992   7.5993

          k =-1.0162-0.2579 0.0000 ( 36506 PWs)   bands (ev):

   -44.1535 -44.1535 -22.2526 -22.2526 -22.2417 -22.2417 -22.0870 -22.0870
    -6.7847  -6.7631  -6.3752  -6.3747  -6.3711  -6.3628  -5.1465  -5.1460
    -4.4223  -4.3914  -0.1840  -0.1663   0.1191   0.1403   1.0127   1.0196
     1.4666   1.6555   2.1988   2.3563   2.3862   2.4145   2.7799   2.8447
     2.8594   2.9079   3.1713   3.2178   3.2840   3.3396   3.4287   3.5949
     4.0203   4.2678   6.7112   6.7772   6.8823   6.8963   7.1404   7.2384
     7.2385   7.3151

          k =-1.0162-0.2579 0.1485 ( 36506 PWs)   bands (ev):

   -44.1535 -44.1535 -22.2526 -22.2526 -22.2417 -22.2417 -22.0870 -22.0870
    -6.7788  -6.7631  -6.4192  -6.4122  -6.3312  -6.3265  -5.1451  -5.1448
    -4.4198  -4.3979  -0.2730  -0.2675   0.2949   0.3032   1.0088   1.0165
     1.4578   1.5875   2.0914   2.2368   2.3243   2.3888   2.6256   2.6551
     2.9205   3.0104   3.1244   3.2231   3.4842   3.5382   3.5809   3.6778
     4.1340   4.2821   6.3606   6.3831   6.6127   6.6903   7.2521   7.2571
     7.4801   7.5509

          k =-1.0162-0.2579-0.2971 ( 36528 PWs)   bands (ev):

   -44.1535 -44.1535 -22.2526 -22.2526 -22.2417 -22.2417 -22.0870 -22.0870
    -6.7679  -6.7679  -6.4353  -6.4353  -6.3121  -6.3121  -5.1437  -5.1437
    -4.4108  -4.4108  -0.3296  -0.3296   0.4549   0.4549   0.9864   0.9864
     1.4984   1.4984   1.9898   1.9898   2.3347   2.3347   2.7504   2.7504
     2.7898   2.7898   3.2148   3.2148   3.6189   3.6189   3.7611   3.7611
     4.3201   4.3201   6.0313   6.0313   6.5515   6.5515   7.2653   7.2653
     7.6240   7.6240

          k = 0.5081 0.0000 0.0000 ( 36503 PWs)   bands (ev):

   -44.1547 -44.1547 -22.2593 -22.2593 -22.2096 -22.2096 -22.0907 -22.0906
    -7.8866  -7.7278  -6.9213  -6.8146  -5.8043  -5.2220  -4.9764  -4.6022
    -4.5706  -4.5058  -0.1164   0.3481   0.7308   0.8660   1.1580   1.2760
     1.6309   1.6940   1.7074   2.0792   2.1337   2.4441   2.6195   3.4360
     3.4654   3.5905   3.5979   3.7068   3.7738   3.9024   4.0008   4.2898
     4.2973   4.7980   5.9495   6.1810   6.3535   6.5774   6.6095   7.1316
     7.4147   7.5713

          k = 0.5081 0.0000 0.1485 ( 36453 PWs)   bands (ev):

   -44.1547 -44.1547 -22.2593 -22.2593 -22.2096 -22.2096 -22.0907 -22.0906
    -7.8667  -7.7553  -6.9009  -6.8265  -5.7490  -5.3793  -4.8471  -4.6070
    -4.5855  -4.5128  -0.0581   0.2966   0.7946   0.8042   1.1508   1.2220
     1.3656   1.5681   1.9999   2.1051   2.2697   2.5175   2.8943   3.3462
     3.4824   3.4830   3.5637   3.7505   3.7546   3.8606   3.8652   4.2979
     4.3329   4.4378   6.2637   6.3467   6.4777   6.5707   6.6918   7.0031
     7.2829   7.5466

          k = 0.5081 0.0000-0.2971 ( 36452 PWs)   bands (ev):

   -44.1547 -44.1547 -22.2593 -22.2593 -22.2096 -22.2096 -22.0907 -22.0907
    -7.8147  -7.8147  -6.8596  -6.8596  -5.5944  -5.5944  -4.7000  -4.7000
    -4.5455  -4.5455   0.1079   0.1079   0.9196   0.9196   0.9870   0.9870
     1.4435   1.4435   2.0603   2.0603   2.6251   2.6251   3.1953   3.1953
     3.3928   3.3928   3.5961   3.5961   3.8067   3.8067   3.9309   3.9309
     4.3702   4.3702   6.5193   6.5193   6.5404   6.5404   6.9146   6.9146
     7.2892   7.2892

          k = 0.7622 0.0645 0.0000 ( 36505 PWs)   bands (ev):

   -44.1538 -44.1538 -22.2546 -22.2546 -22.2323 -22.2323 -22.0881 -22.0881
    -7.2975  -7.1322  -6.7758  -6.6752  -5.7425  -5.5809  -5.1555  -5.1145
    -4.4693  -4.4544  -0.2992   0.0264   0.1079   0.8779   0.9334   1.3226
     1.4640   1.5548   1.9833   2.1239   2.2617   2.3111   2.4146   2.7936
     3.0114   3.2540   3.3603   3.4405   3.5979   3.6951   3.7137   3.7213
     3.8477   4.6141   6.2675   6.4661   6.6512   6.9655   7.0031   7.0238
     7.4100   7.6721

          k = 0.7622 0.0645 0.1485 ( 36509 PWs)   bands (ev):

   -44.1538 -44.1538 -22.2546 -22.2546 -22.2323 -22.2323 -22.0881 -22.0881
    -7.2780  -7.1633  -6.7549  -6.6860  -5.7155  -5.6004  -5.1540  -5.1263
    -4.4656  -4.4553  -0.2613   0.0232   0.1405   0.7442   0.9623   1.2655
     1.4733   1.5867   1.9670   1.9683   2.1798   2.5532   2.7172   2.8942
     2.9670   3.0166   3.3087   3.3354   3.5492   3.5854   3.7652   3.9640
     3.9712   4.4542   6.1363   6.4490   6.7990   6.9330   7.0293   7.1622
     7.1942   7.7054

          k = 0.7622 0.0645-0.2971 ( 36472 PWs)   bands (ev):

   -44.1538 -44.1538 -22.2546 -22.2546 -22.2323 -22.2323 -22.0881 -22.0881
    -7.2260  -7.2260  -6.7159  -6.7159  -5.6543  -5.6543  -5.1452  -5.1452
    -4.4591  -4.4591  -0.1403  -0.1403   0.4260   0.4260   1.0926   1.0926
     1.5487   1.5487   1.9291   1.9291   2.4646   2.4646   2.8597   2.8597
     2.9234   2.9234   3.3011   3.3011   3.5873   3.5873   4.0000   4.0000
     4.0516   4.0516   6.4821   6.4821   6.5560   6.5560   7.0579   7.0579
     7.6265   7.6265

          k = 1.0162 0.1290 0.0000 ( 36514 PWs)   bands (ev):

   -44.1535 -44.1535 -22.2526 -22.2526 -22.2417 -22.2417 -22.0870 -22.0870
    -6.7847  -6.7630  -6.3750  -6.3747  -6.3711  -6.3630  -5.1465  -5.1460
    -4.4223  -4.3914  -0.1896  -0.1607   0.1169   0.1425   1.0038   1.0292
     1.4740   1.6447   2.1943   2.3637   2.3939   2.4054   2.7571   2.8645
     2.8848   2.8995   3.1763   3.1928   3.2870   3.3245   3.4570   3.5877
     4.0021   4.2860   6.7044   6.7882   6.8619   6.9165   7.1667   7.2380
     7.2407   7.2912

          k = 1.0162 0.1290 0.1485 ( 36524 PWs)   bands (ev):

   -44.1535 -44.1535 -22.2526 -22.2526 -22.2417 -22.2417 -22.0870 -22.0870
    -6.7788  -6.7631  -6.4192  -6.4123  -6.3312  -6.3266  -5.1451  -5.1448
    -4.4198  -4.3979  -0.2755  -0.2653   0.2960   0.3026   1.0057   1.0197
     1.4646   1.5804   2.0971   2.2210   2.3282   2.3906   2.6150   2.6729
     2.9109   3.0235   3.1258   3.2162   3.4894   3.5070   3.6161   3.6706
     4.1135   4.3016   6.3572   6.3929   6.6089   6.6923   7.2537   7.2573
     7.4896   7.5417

          k = 1.0162 0.1290-0.2971 ( 36516 PWs)   bands (ev):

   -44.1535 -44.1535 -22.2526 -22.2526 -22.2417 -22.2417 -22.0870 -22.0870
    -6.7679  -6.7679  -6.4353  -6.4353  -6.3121  -6.3121  -5.1437  -5.1437
    -4.4108  -4.4108  -0.3297  -0.3297   0.4552   0.4552   0.9861   0.9861
     1.4996   1.4996   1.9901   1.9901   2.3304   2.3304   2.7274   2.7274
     2.8207   2.8207   3.2083   3.2083   3.6204   3.6204   3.7609   3.7609
     4.3209   4.3209   6.0345   6.0345   6.5506   6.5506   7.2660   7.2660
     7.6242   7.6242

          k =-0.7622-0.3224 0.0000 ( 36511 PWs)   bands (ev):

   -44.1538 -44.1538 -22.2546 -22.2546 -22.2323 -22.2323 -22.0881 -22.0881
    -7.2881  -7.1304  -6.7830  -6.6797  -5.7410  -5.5852  -5.1584  -5.1137
    -4.4898  -4.4324  -0.3186   0.0300   0.0894   0.8713   0.8995   1.2940
     1.5025   1.6662   2.0940   2.1595   2.2088   2.2639   2.4751   2.8558
     3.0277   3.1935   3.3434   3.4232   3.5031   3.6181   3.6953   3.6987
     4.0308   4.5627   6.2728   6.5366   6.6005   6.8906   7.0305   7.1135
     7.3888   7.5590

          k =-0.7622-0.3224 0.1485 ( 36492 PWs)   bands (ev):

   -44.1538 -44.1538 -22.2546 -22.2546 -22.2323 -22.2323 -22.0881 -22.0881
    -7.2693  -7.1598  -6.7628  -6.6916  -5.7142  -5.6031  -5.1566  -5.1264
    -4.4800  -4.4399  -0.2805   0.0044   0.1481   0.7669   0.9056   1.2366
     1.5240   1.6070   2.0240   2.1007   2.1952   2.5545   2.6848   2.9293
     2.9687   3.0411   3.2457   3.3059   3.4749   3.5778   3.7867   3.8794
     4.0597   4.4737   6.0801   6.5117   6.7454   6.9312   7.0604   7.1407
     7.2414   7.6051

          k =-0.7622-0.3224-0.2971 ( 36508 PWs)   bands (ev):

   -44.1538 -44.1538 -22.2546 -22.2546 -22.2323 -22.2323 -22.0881 -22.0881
    -7.2194  -7.2194  -6.7234  -6.7234  -5.6542  -5.6542  -5.1469  -5.1469
    -4.4589  -4.4589  -0.1589  -0.1589   0.4403   0.4403   1.0533   1.0533
     1.5602   1.5602   2.0488   2.0488   2.4653   2.4653   2.8499   2.8499
     2.9808   2.9808   3.1931   3.1931   3.5880   3.5880   3.9211   3.9211
     4.1503   4.1503   6.4182   6.4182   6.5587   6.5587   7.1318   7.1318
     7.5416   7.5417

          k =-0.5081-0.2579 0.0000 ( 36480 PWs)   bands (ev):

   -44.1547 -44.1547 -22.2593 -22.2593 -22.2096 -22.2096 -22.0907 -22.0906
    -7.8814  -7.7267  -6.9213  -6.8157  -5.8142  -5.2248  -4.9840  -4.6196
    -4.5493  -4.5075  -0.1304   0.3726   0.7242   0.8296   1.1702   1.4169
     1.6454   1.7381   1.7628   2.0589   2.1387   2.4776   2.6032   3.3749
     3.4689   3.5226   3.5770   3.6950   3.7546   3.7715   4.0810   4.1623
     4.2827   4.8342   5.9297   6.2340   6.2833   6.7057   6.7886   7.0016
     7.3976   7.4802

          k =-0.5081-0.2579 0.1485 ( 36485 PWs)   bands (ev):

   -44.1547 -44.1547 -22.2593 -22.2593 -22.2096 -22.2096 -22.0907 -22.0906
    -7.8619  -7.7533  -6.9018  -6.8280  -5.7573  -5.3826  -4.8572  -4.6056
    -4.5916  -4.5036  -0.0688   0.3148   0.7642   0.8070   1.1372   1.2609
     1.5018   1.6517   1.9883   2.0613   2.3200   2.5492   2.8848   3.2801
     3.4320   3.5055   3.5307   3.6703   3.7125   3.7801   3.9729   4.1898
     4.2722   4.4927   6.3025   6.3135   6.4275   6.7058   6.8304   6.8954
     7.2384   7.4860

          k =-0.5081-0.2579-0.2971 ( 36478 PWs)   bands (ev):

   -44.1547 -44.1547 -22.2593 -22.2593 -22.2096 -22.2096 -22.0907 -22.0907
    -7.8111  -7.8111  -6.8614  -6.8614  -5.5998  -5.5998  -4.7101  -4.7101
    -4.5383  -4.5383   0.1073   0.1073   0.9262   0.9262   0.9745   0.9745
     1.5645   1.5645   2.0375   2.0375   2.6702   2.6702   3.1493   3.1493
     3.3652   3.3652   3.5836   3.5836   3.7160   3.7160   3.9819   3.9819
     4.3155   4.3155   6.4759   6.4759   6.6519   6.6519   6.8576   6.8576
     7.2866   7.2866

          k =-0.2541-0.1934 0.0000 ( 36410 PWs)   bands (ev):

   -44.1556 -44.1556 -22.2640 -22.2640 -22.1869 -22.1869 -22.0933 -22.0931
    -8.2604  -8.1009  -7.0689  -6.9372  -5.9764  -5.3498  -4.7511  -4.6896
    -4.6566  -3.9373   0.2739   0.7287   0.9353   1.0338   1.2318   1.3898
     1.4347   1.5919   1.7707   2.5743   2.6286   3.1614   3.3891   3.6705
     3.7356   3.7640   3.8978   3.9203   3.9281   4.2086   4.2934   4.3950
     4.4297   4.6744   6.0330   6.0343   6.2264   6.3362   6.4452   6.8008
     7.0282   7.1812

          k =-0.2541-0.1934 0.1485 ( 36427 PWs)   bands (ev):

   -44.1556 -44.1556 -22.2640 -22.2640 -22.1869 -22.1869 -22.0933 -22.0932
    -8.2402  -8.1281  -7.0443  -6.9522  -5.9160  -5.5030  -4.7368  -4.6766
    -4.5156  -4.0180   0.3426   0.6763   0.8804   1.0728   1.1043   1.2507
     1.4801   1.7212   2.0653   2.5748   2.6173   2.9339   3.4441   3.4877
     3.5431   3.8058   3.8749   3.9120   4.0408   4.2092   4.3978   4.4292
     4.6076   4.7805   5.9073   6.0128   6.1305   6.2770   6.3131   6.8360
     7.1750   7.2174

          k =-0.2541-0.1934-0.2971 ( 36422 PWs)   bands (ev):

   -44.1556 -44.1556 -22.2640 -22.2640 -22.1869 -22.1869 -22.0932 -22.0932
    -8.1876  -8.1876  -6.9936  -6.9936  -5.7438  -5.7438  -4.7065  -4.7065
    -4.2353  -4.2353   0.5186   0.5186   0.8884   0.8884   1.1663   1.1663
     1.6762   1.6762   2.4847   2.4847   2.6451   2.6451   3.3046   3.3046
     3.7294   3.7294   3.8580   3.8580   4.1685   4.1685   4.4159   4.4159
     4.9035   4.9035   5.7628   5.7628   6.1890   6.1890   6.5168   6.5168
     7.3335   7.3335

          k = 0.0000-0.1290 0.0000 ( 36417 PWs)   bands (ev):

   -44.1559 -44.1559 -22.2660 -22.2659 -22.1774 -22.1774 -22.0944 -22.0942
    -8.3902  -8.2280  -7.1327  -6.9871  -6.0297  -5.3971  -4.7809  -4.7173
    -4.6214  -3.7399   0.1919   0.8248   0.8911   1.1846   1.2298   1.5616
     1.6365   1.7183   2.2535   2.8359   2.9207   2.9589   3.1949   3.4586
     3.8889   3.9765   3.9911   4.0133   4.2862   4.3965   4.4705   4.6459
     4.7607   5.1717   5.6358   5.8792   5.9022   5.9677   6.1525   6.6716
     7.1490   7.2212

          k = 0.0000-0.1290 0.1485 ( 36419 PWs)   bands (ev):

   -44.1559 -44.1559 -22.2660 -22.2659 -22.1774 -22.1774 -22.0943 -22.0942
    -8.3697  -8.2558  -7.1054  -7.0035  -5.9698  -5.5520  -4.7695  -4.7239
    -4.4402  -3.8444   0.2726   0.8700   0.9328   0.9614   1.1526   1.6474
     1.7051   1.8459   2.0052   2.8502   2.9100   2.9869   3.3457   3.5429
     3.8448   3.9627   4.0136   4.0214   4.3060   4.3356   4.4666   4.6781
     4.7502   4.7891   5.8422   5.8731   5.8958   6.2455   6.2808   6.5456
     6.9514   7.0414

          k = 0.0000-0.1290-0.2971 ( 36464 PWs)   bands (ev):

   -44.1559 -44.1559 -22.2659 -22.2659 -22.1774 -22.1774 -22.0943 -22.0943
    -8.3162  -8.3162  -7.0491  -7.0491  -5.7968  -5.7968  -4.7463  -4.7463
    -4.1134  -4.1134   0.5087   0.5087   1.0211   1.0211   1.3618   1.3618
     1.6752   1.6752   2.5275   2.5275   2.8819   2.8819   3.6552   3.6552
     3.8714   3.8714   4.1455   4.1455   4.1904   4.1904   4.4558   4.4558
     4.7210   4.7210   5.8719   5.8719   6.2094   6.2094   6.5932   6.5932
     6.6815   6.6815

          k = 1.0162 0.0000 0.0000 ( 36499 PWs)   bands (ev):

   -44.1535 -44.1535 -22.2526 -22.2526 -22.2417 -22.2417 -22.0870 -22.0870
    -6.7847  -6.7630  -6.3749  -6.3748  -6.3710  -6.3631  -5.1465  -5.1460
    -4.4223  -4.3914  -0.1935  -0.1566   0.1151   0.1445   0.9992   1.0344
     1.4825   1.6329   2.1903   2.3784   2.3890   2.4014   2.7444   2.8789
     2.8818   2.9170   3.1442   3.2228   3.2805   3.3006   3.4866   3.5771
     3.9861   4.3020   6.6990   6.7980   6.8511   6.9270   7.2199   7.2382
     7.2404   7.2421

          k = 1.0162 0.0000 0.1485 ( 36485 PWs)   bands (ev):

   -44.1535 -44.1535 -22.2526 -22.2526 -22.2417 -22.2417 -22.0870 -22.0870
    -6.7788  -6.7630  -6.4192  -6.4123  -6.3311  -6.3266  -5.1451  -5.1448
    -4.4198  -4.3979  -0.2772  -0.2639   0.2974   0.3016   1.0036   1.0218
     1.4725   1.5723   2.1040   2.2050   2.3335   2.3898   2.6115   2.6828
     2.9053   3.0337   3.1286   3.2077   3.4865   3.4975   3.6474   3.6539
     4.0965   4.3176   6.3556   6.4009   6.6053   6.6940   7.2555   7.2571
     7.5064   7.5253

          k = 1.0162 0.0000-0.2971 ( 36514 PWs)   bands (ev):

   -44.1535 -44.1535 -22.2526 -22.2526 -22.2417 -22.2417 -22.0870 -22.0870
    -6.7679  -6.7679  -6.4353  -6.4353  -6.3121  -6.3121  -5.1437  -5.1437
    -4.4108  -4.4108  -0.3298  -0.3298   0.4554   0.4554   0.9859   0.9859
     1.5009   1.5009   1.9904   1.9904   2.3261   2.3261   2.7145   2.7145
     2.8416   2.8416   3.2015   3.2015   3.6219   3.6219   3.7606   3.7606
     4.3216   4.3216   6.0376   6.0376   6.5496   6.5496   7.2666   7.2666
     7.6242   7.6242

          k = 1.2703 0.0645 0.0000 ( 36468 PWs)   bands (ev):

   -44.1538 -44.1538 -22.2546 -22.2546 -22.2323 -22.2323 -22.0881 -22.0881
    -7.2840  -7.1297  -6.7865  -6.6812  -5.7404  -5.5869  -5.1596  -5.1135
    -4.4945  -4.4271  -0.3264   0.0329   0.0803   0.8517   0.9084   1.2842
     1.5027   1.7196   2.1572   2.1809   2.2383   2.2390   2.4109   2.8867
     3.0283   3.1927   3.3678   3.4101   3.5091   3.5687   3.6348   3.6771
     4.1308   4.5289   6.2749   6.5519   6.6086   6.8328   7.0592   7.1824
     7.3587   7.5348

          k = 1.2703 0.0645 0.1485 ( 36490 PWs)   bands (ev):

   -44.1538 -44.1538 -22.2546 -22.2546 -22.2323 -22.2323 -22.0881 -22.0881
    -7.2656  -7.1583  -6.7664  -6.6937  -5.7136  -5.6042  -5.1577  -5.1265
    -4.4833  -4.4361  -0.2883  -0.0027   0.1504   0.7760   0.8872   1.2257
     1.5325   1.6243   2.0464   2.1462   2.2277   2.5548   2.6385   2.9522
     2.9671   3.0734   3.2353   3.2709   3.4847   3.5335   3.7779   3.8417
     4.1182   4.4788   6.0597   6.5430   6.7156   6.9276   7.0455   7.2021
     7.2424   7.5488

          k = 1.2703 0.0645-0.2971 ( 36480 PWs)   bands (ev):

   -44.1538 -44.1538 -22.2546 -22.2546 -22.2323 -22.2323 -22.0881 -22.0881
    -7.2166  -7.2166  -6.7266  -6.7266  -5.6541  -5.6541  -5.1476  -5.1476
    -4.4588  -4.4588  -0.1664  -0.1664   0.4456   0.4456   1.0404   1.0404
     1.5662   1.5662   2.0886   2.0886   2.4787   2.4787   2.8488   2.8488
     2.9985   2.9985   3.1531   3.1531   3.5808   3.5808   3.8872   3.8872
     4.1926   4.1926   6.3966   6.3966   6.5574   6.5574   7.1679   7.1679
     7.4846   7.4846

          k =-0.5081-0.3869 0.0000 ( 36463 PWs)   bands (ev):

   -44.1547 -44.1547 -22.2593 -22.2593 -22.2096 -22.2096 -22.0907 -22.0906
    -7.8777  -7.7259  -6.9219  -6.8157  -5.8213  -5.2266  -4.9893  -4.6262
    -4.5398  -4.5087  -0.1401   0.3894   0.7213   0.8063   1.1789   1.5414
     1.6561   1.7705   1.7916   2.0367   2.1592   2.4761   2.5884   3.2846
     3.5028   3.5282   3.5726   3.5819   3.7256   3.7733   4.0500   4.1573
     4.2698   4.8556   5.9190   6.1604   6.3485   6.8068   6.9144   6.9260
     7.3637   7.4411

          k =-0.5081-0.3869 0.1485 ( 36477 PWs)   bands (ev):

   -44.1547 -44.1547 -22.2593 -22.2593 -22.2096 -22.2096 -22.0907 -22.0906
    -7.8585  -7.7519  -6.9028  -6.8286  -5.7633  -5.3848  -4.8642  -4.6045
    -4.5953  -4.4980  -0.0762   0.3272   0.7557   0.7955   1.1360   1.2830
     1.6252   1.7251   1.9526   2.0311   2.3749   2.5420   2.8741   3.2123
     3.4007   3.5119   3.5245   3.5913   3.7102   3.7486   4.0232   4.1332
     4.2341   4.5215   6.2486   6.3525   6.4115   6.7864   6.8161   6.9749
     7.1864   7.4643

          k =-0.5081-0.3869-0.2971 ( 36492 PWs)   bands (ev):

   -44.1547 -44.1547 -22.2593 -22.2593 -22.2096 -22.2096 -22.0907 -22.0907
    -7.8085  -7.8085  -6.8627  -6.8627  -5.6036  -5.6036  -4.7168  -4.7168
    -4.5337  -4.5337   0.1068   0.1068   0.9317   0.9318   0.9656   0.9656
     1.6742   1.6742   2.0015   2.0015   2.7208   2.7208   3.0702   3.0702
     3.3579   3.3579   3.5626   3.5626   3.6830   3.6830   4.0052   4.0052
     4.2870   4.2870   6.4455   6.4455   6.7022   6.7022   6.8361   6.8361
     7.3069   7.3069

          k =-0.2541-0.3224 0.0000 ( 36485 PWs)   bands (ev):

   -44.1556 -44.1556 -22.2640 -22.2640 -22.1869 -22.1869 -22.0933 -22.0931
    -8.2568  -8.1001  -7.0651  -6.9358  -5.9923  -5.3562  -4.7740  -4.6808
    -4.6466  -3.9383   0.2990   0.7198   0.9434   1.1295   1.2637   1.4249
     1.4703   1.6727   1.7975   2.5104   2.5851   3.1871   3.4719   3.5795
     3.6329   3.6525   3.7709   3.9319   3.9395   4.1373   4.1815   4.3154
     4.3782   4.7297   6.0836   6.1278   6.2700   6.3738   6.4808   6.8726
     6.9501   7.0999

          k =-0.2541-0.3224 0.1485 ( 36445 PWs)   bands (ev):

   -44.1556 -44.1556 -22.2640 -22.2640 -22.1869 -22.1869 -22.0933 -22.0932
    -8.2369  -8.1267  -7.0414  -6.9510  -5.9300  -5.5100  -4.7529  -4.6692
    -4.5122  -4.0182   0.3684   0.6753   0.8839   1.1173   1.2019   1.3054
     1.5033   1.7457   2.1222   2.5133   2.5766   2.9580   3.4331   3.4831
     3.6081   3.6211   3.6714   3.9109   3.9845   4.1475   4.3242   4.3721
     4.5900   4.8225   5.9154   6.0104   6.1651   6.3419   6.4204   6.8001
     7.1565   7.2031

          k =-0.2541-0.3224-0.2971 ( 36442 PWs)   bands (ev):

   -44.1556 -44.1556 -22.2640 -22.2640 -22.1869 -22.1869 -22.0932 -22.0932
    -8.1851  -8.1851  -6.9921  -6.9921  -5.7539  -5.7539  -4.7107  -4.7107
    -4.2339  -4.2339   0.5387   0.5387   0.8986   0.8986   1.2541   1.2541
     1.6970   1.6970   2.4818   2.4818   2.6406   2.6406   3.3003   3.3003
     3.6035   3.6035   3.8179   3.8179   4.1090   4.1090   4.3534   4.3534
     4.9248   4.9248   5.7436   5.7436   6.2258   6.2258   6.5590   6.5590
     7.3252   7.3252

          k = 0.0000-0.2579 0.0000 ( 36445 PWs)   bands (ev):

   -44.1559 -44.1559 -22.2660 -22.2659 -22.1774 -22.1774 -22.0944 -22.0942
    -8.3870  -8.2273  -7.1273  -6.9855  -6.0471  -5.4049  -4.7991  -4.7051
    -4.6197  -3.7406   0.2206   0.8319   0.9987   1.2387   1.2562   1.6332
     1.6358   1.7174   2.2458   2.8533   2.9301   2.9663   3.1932   3.5656
     3.6349   3.7003   3.9484   3.9771   4.1605   4.3453   4.3973   4.6131
     4.7573   5.1437   5.6789   5.9644   5.9887   6.0358   6.1723   6.7132
     7.0805   7.1491

          k = 0.0000-0.2579 0.1485 ( 36452 PWs)   bands (ev):

   -44.1559 -44.1559 -22.2660 -22.2659 -22.1774 -22.1774 -22.0943 -22.0942
    -8.3667  -8.2545  -7.1011  -7.0018  -5.9854  -5.5604  -4.7845  -4.7153
    -4.4391  -3.8446   0.3029   0.9104   0.9648   1.0402   1.2118   1.6468
     1.7043   1.8575   2.0479   2.8665   2.9206   3.0004   3.3185   3.5831
     3.6868   3.7207   3.9165   3.9945   4.2127   4.2934   4.3499   4.6601
     4.7462   4.7839   5.8983   5.9321   5.9739   6.2616   6.2970   6.5794
     6.9344   6.9546

          k = 0.0000-0.2579-0.2971 ( 36454 PWs)   bands (ev):

   -44.1559 -44.1559 -22.2659 -22.2659 -22.1774 -22.1774 -22.0943 -22.0943
    -8.3140  -8.3140  -7.0466  -7.0466  -5.8084  -5.8084  -4.7497  -4.7497
    -4.1128  -4.1128   0.5438   0.5438   1.1000   1.1000   1.3742   1.3742
     1.6745   1.6745   2.5609   2.5609   2.8954   2.8954   3.5592   3.5592
     3.7829   3.7829   4.0861   4.0861   4.1229   4.1229   4.3871   4.3871
     4.7138   4.7138   5.9318   5.9318   6.2474   6.2474   6.6027   6.6027
     6.6340   6.6340

          k = 1.5243 0.0000 0.0000 ( 36439 PWs)   bands (ev):

   -44.1547 -44.1547 -22.2593 -22.2593 -22.2096 -22.2096 -22.0907 -22.0906
    -7.8762  -7.7256  -6.9224  -6.8156  -5.8242  -5.2274  -4.9916  -4.6283
    -4.5365  -4.5092  -0.1440   0.3962   0.7207   0.7966   1.1826   1.6095
     1.6734   1.7713   1.7843   2.0256   2.1906   2.4547   2.5814   3.2542
     3.5107   3.5216   3.5414   3.5844   3.7039   3.7867   3.9967   4.1878
     4.2641   4.8636   5.9151   6.1267   6.3801   6.8526   6.8787   6.9931
     7.3327   7.4911

          k = 1.5243 0.0000 0.1485 ( 36476 PWs)   bands (ev):

   -44.1547 -44.1547 -22.2593 -22.2593 -22.2096 -22.2096 -22.0907 -22.0906
    -7.8571  -7.7513  -6.9034  -6.8287  -5.7658  -5.3857  -4.8671  -4.6041
    -4.5967  -4.4958  -0.0792   0.3322   0.7544   0.7885   1.1364   1.2914
     1.7182   1.7332   1.9319   2.0061   2.4367   2.4979   2.8666   3.1924
     3.3674   3.5154   3.5286   3.5730   3.7129   3.7332   4.0120   4.1437
     4.2123   4.5331   6.2221   6.3700   6.4084   6.7679   6.8419   7.0501
     7.1439   7.4882

          k = 1.5243 0.0000-0.2971 ( 36508 PWs)   bands (ev):

   -44.1547 -44.1547 -22.2593 -22.2593 -22.2096 -22.2096 -22.0907 -22.0907
    -7.8075  -7.8075  -6.8632  -6.8632  -5.6051  -5.6051  -4.7195  -4.7195
    -4.5319  -4.5319   0.1065   0.1065   0.9348   0.9348   0.9613   0.9613
     1.7349   1.7349   1.9727   1.9727   2.7536   2.7536   3.0183   3.0183
     3.3583   3.3583   3.5530   3.5530   3.6748   3.6748   4.0093   4.0093
     4.2801   4.2801   6.4331   6.4331   6.7064   6.7064   6.8394   6.8394
     7.3267   7.3268

          k =-0.2541-0.4514 0.0000 ( 36444 PWs)   bands (ev):

   -44.1556 -44.1556 -22.2640 -22.2640 -22.1869 -22.1869 -22.0933 -22.0931
    -8.2542  -8.0995  -7.0627  -6.9343  -6.0037  -5.3607  -4.7877  -4.6725
    -4.6441  -3.9389   0.3121   0.7144   0.9488   1.2021   1.3045   1.4428
     1.4953   1.7529   1.8304   2.4428   2.5150   3.2457   3.4305   3.4673
     3.5311   3.6392   3.8409   3.9353   3.9553   4.0253   4.1008   4.2516
     4.3642   4.7652   6.1120   6.2081   6.2596   6.4282   6.5051   6.8686
     6.9188   7.0582

          k =-0.2541-0.4514 0.1485 ( 36461 PWs)   bands (ev):

   -44.1556 -44.1556 -22.2640 -22.2640 -22.1869 -22.1869 -22.0933 -22.0932
    -8.2345  -8.1258  -7.0397  -6.9498  -5.9400  -5.5149  -4.7628  -4.6652
    -4.5101  -4.0183   0.3822   0.6747   0.8854   1.1431   1.2840   1.3585
     1.5292   1.7746   2.1816   2.4484   2.5022   2.9959   3.3673   3.4147
     3.5186   3.5707   3.7573   3.9070   3.9591   4.0278   4.2831   4.3501
     4.5806   4.8498   5.9201   6.0058   6.1990   6.3695   6.4868   6.7515
     7.1654   7.1921

          k =-0.2541-0.4514-0.2971 ( 36490 PWs)   bands (ev):

   -44.1556 -44.1556 -22.2640 -22.2640 -22.1869 -22.1869 -22.0932 -22.0932
    -8.1833  -8.1833  -6.9910  -6.9910  -5.7609  -5.7609  -4.7137  -4.7137
    -4.2328  -4.2328   0.5496   0.5496   0.9036   0.9036   1.3328   1.3328
     1.7206   1.7206   2.4595   2.4595   2.6388   2.6388   3.2766   3.2766
     3.4781   3.4781   3.8864   3.8864   4.0296   4.0296   4.3201   4.3201
     4.9386   4.9386   5.7327   5.7327   6.2309   6.2309   6.5889   6.5889
     7.3240   7.3240

          k = 0.0000-0.3869 0.0000 ( 36477 PWs)   bands (ev):

   -44.1560 -44.1559 -22.2660 -22.2659 -22.1774 -22.1774 -22.0944 -22.0942
    -8.3837  -8.2266  -7.1224  -6.9831  -6.0649  -5.4126  -4.8148  -4.6927
    -4.6207  -3.7414   0.2411   0.8409   1.1425   1.2803   1.3030   1.6352
     1.7090   1.7166   2.2393   2.8721   2.9391   2.9839   3.1671   3.3153
     3.4606   3.7207   3.9199   3.9962   4.0258   4.1782   4.3980   4.5805
     4.7540   5.1242   5.7221   6.0240   6.0424   6.1200   6.1925   6.7409
     6.9378   7.1490

          k = 0.0000-0.3869 0.1485 ( 36452 PWs)   bands (ev):

   -44.1559 -44.1559 -22.2660 -22.2659 -22.1774 -22.1774 -22.0943 -22.0942
    -8.3637  -8.2533  -7.0971  -6.9996  -6.0012  -5.5688  -4.7969  -4.7092
    -4.4381  -3.8447   0.3245   0.9390   0.9794   1.1845   1.2832   1.6461
     1.7036   1.8692   2.0970   2.8840   2.9311   3.0088   3.2337   3.3415
     3.4810   3.8039   3.9481   3.9671   4.0925   4.1915   4.2793   4.6435
     4.7425   4.7822   5.9555   5.9788   6.0194   6.2756   6.3135   6.5937
     6.8273   6.9578

          k = 0.0000-0.3869-0.2971 ( 36454 PWs)   bands (ev):

   -44.1559 -44.1559 -22.2659 -22.2659 -22.1774 -22.1774 -22.0943 -22.0943
    -8.3117  -8.3117  -7.0441  -7.0441  -5.8200  -5.8200  -4.7532  -4.7532
    -4.1121  -4.1121   0.5694   0.5694   1.2046   1.2046   1.3925   1.3925
     1.6738   1.6738   2.5984   2.5984   2.9094   2.9094   3.2914   3.2914
     3.8344   3.8344   4.0229   4.0229   4.0995   4.0995   4.3193   4.3193
     4.7071   4.7071   5.9649   5.9649   6.2888   6.2888   6.5726   6.5726
     6.6124   6.6124

          k =-2.0325 0.0000 0.0000 ( 36452 PWs)   bands (ev):

   -44.1559 -44.1559 -22.2660 -22.2659 -22.1774 -22.1774 -22.0944 -22.0942
    -8.3824  -8.2263  -7.1205  -6.9818  -6.0723  -5.4158  -4.8209  -4.6871
    -4.6220  -3.7417   0.2472   0.8451   1.2652   1.2756   1.2896   1.6349
     1.7163   1.7535   2.2371   2.8805   2.9426   2.9947   3.1052   3.2006
     3.3871   3.8817   3.9034   3.9079   4.0039   4.0773   4.3983   4.5670
     4.7527   5.1173   5.7399   6.0440   6.0583   6.1644   6.2009   6.7380
     6.8833   7.1489

          k =-2.0325 0.0000 0.1485 ( 36456 PWs)   bands (ev):

   -44.1559 -44.1559 -22.2660 -22.2659 -22.1774 -22.1774 -22.0943 -22.0942
    -8.3624  -8.2528  -7.0956  -6.9985  -6.0078  -5.5722  -4.8016  -4.7071
    -4.4378  -3.8448   0.3309   0.9517   0.9845   1.2777   1.2977   1.6458
     1.7032   1.8743   2.1232   2.8916   2.9353   2.9982   3.1276   3.2653
     3.4302   3.9130   3.9556   3.9587   4.0378   4.0786   4.2730   4.6371
     4.7410   4.7816   5.9786   6.0008   6.0306   6.2822   6.3205   6.5865
     6.7882   6.9592

          k =-2.0325 0.0000-0.2971 ( 36460 PWs)   bands (ev):

   -44.1559 -44.1559 -22.2659 -22.2659 -22.1774 -22.1774 -22.0943 -22.0943
    -8.3108  -8.3108  -7.0431  -7.0431  -5.8248  -5.8248  -4.7547  -4.7547
    -4.1118  -4.1118   0.5775   0.5775   1.2553   1.2553   1.4048   1.4048
     1.6735   1.6735   2.6167   2.6167   2.9154   2.9154   3.1651   3.1651
     3.8754   3.8754   3.9867   3.9867   4.0897   4.0897   4.2928   4.2928
     4.7044   4.7044   5.9740   5.9740   6.3079   6.3079   6.5427   6.5427
     6.6164   6.6164

     the Fermi energy is     5.2120 ev

!    total energy              =   -4240.92232115 Ry

     total all-electron energy =   -150287.616016 Ry
     estimated scf accuracy    <          9.8E-13 Ry
     smearing contrib. (-TS)   =       0.00000400 Ry
     internal energy E=F+TS    =   -4240.92232515 Ry

     The total energy is F=E-TS. E is the sum of the following terms:
     one-electron contribution =    -168.99924952 Ry
     hartree contribution      =     117.94212495 Ry
     xc contribution           =    -201.64672098 Ry
     ewald contribution        =    -220.67167692 Ry
     one-center paw contrib.   =   -3767.54680268 Ry

     convergence has been achieved in  17 iterations

     Forces acting on atoms (cartesian axes, Ry/au):

     atom    1 type  1   force =     0.00000000    0.02199960    0.00000000
     atom    2 type  1   force =     0.00000000   -0.02199960    0.00000000
     atom    3 type  2   force =     0.00000000   -0.00029170    0.00000000
     atom    4 type  2   force =     0.00000000    0.00029170    0.00000000
     atom    5 type  2   force =     0.00000000   -0.00512248   -0.00347831
     atom    6 type  2   force =     0.00000000    0.00512248    0.00347831
     atom    7 type  2   force =    -0.00000000   -0.00512248    0.00347831
     atom    8 type  2   force =     0.00000000    0.00512248   -0.00347831
     atom    9 type  2   force =     0.00000000   -0.04163170   -0.04925119
     atom   10 type  2   force =     0.00000000    0.04163170    0.04925119
     atom   11 type  2   force =     0.00000000   -0.04163170    0.04925119
     atom   12 type  2   force =     0.00000000    0.04163170   -0.04925119

     Total force =     0.133255     Total SCF correction =     0.000002


     Computing stress (Cartesian axis) and pressure

          total   stress  (Ry/bohr**3)                   (kbar)     P=       11.76
   0.00009657   0.00000000   0.00000000           14.21        0.00        0.00
   0.00000000   0.00004064   0.00000000            0.00        5.98        0.00
   0.00000000   0.00000000   0.00010258            0.00        0.00       15.09

 
     init_run     :     35.45s CPU     36.79s WALL (       1 calls)
     electrons    :   1619.91s CPU   1637.49s WALL (       1 calls)
     forces       :      6.72s CPU      6.94s WALL (       1 calls)
     stress       :     47.47s CPU     48.15s WALL (       1 calls)

     Called by init_run:
     wfcinit      :     30.47s CPU     30.78s WALL (       1 calls)
     potinit      :      1.50s CPU      1.55s WALL (       1 calls)
     hinit0       :      1.71s CPU      2.39s WALL (       1 calls)

     Called by electrons:
     c_bands      :   1298.65s CPU   1306.01s WALL (      18 calls)
     sum_band     :    288.78s CPU    294.82s WALL (      18 calls)
     v_of_rho     :      8.28s CPU      8.83s WALL (      18 calls)
     newd         :     17.35s CPU     21.21s WALL (      18 calls)
     PAW_pot      :      6.51s CPU      6.51s WALL (      18 calls)
     mix_rho      :      1.50s CPU      1.54s WALL (      18 calls)

     Called by c_bands:
     init_us_2    :     13.84s CPU     13.90s WALL (    2457 calls)
     cegterg      :   1221.55s CPU   1228.23s WALL (    1134 calls)

     Called by *egterg:
     cdiaghg      :     26.53s CPU     26.65s WALL (    7576 calls)
     h_psi        :   1052.82s CPU   1059.28s WALL (    7702 calls)
     s_psi        :     48.74s CPU     48.82s WALL (    7702 calls)
     g_psi        :      2.10s CPU      2.11s WALL (    6505 calls)

     Called by h_psi:
     h_psi:calbec :     41.27s CPU     41.38s WALL (    7702 calls)
     vloc_psi     :    959.17s CPU    965.37s WALL (    7702 calls)
     add_vuspsi   :     48.55s CPU     48.63s WALL (    7702 calls)

     General routines
     calbec       :     54.50s CPU     54.65s WALL (    9151 calls)
     fft          :      7.35s CPU      8.20s WALL (     258 calls)
     ffts         :      0.20s CPU      0.20s WALL (      36 calls)
     fftw         :    966.70s CPU    972.82s WALL (  404402 calls)
     interpolate  :      0.66s CPU      0.66s WALL (      18 calls)
 
     Parallel routines
     fft_scatt_xy :    265.86s CPU    267.49s WALL (  404696 calls)
     fft_scatt_yz :    170.35s CPU    171.82s WALL (  404696 calls)
 
     PWSCF        :  28m29.96s CPU  28m56.55s WALL

 
   This run was terminated on:  15:15:13  19Nov2021            

=------------------------------------------------------------------------------=
   JOB DONE.
=------------------------------------------------------------------------------=
