
     Program PWSCF v.6.7MaX starts on 19Nov2021 at 14:46:19 

     This program is part of the open-source Quantum ESPRESSO suite
     for quantum simulation of materials; please cite
         "P. Giannozzi et al., J. Phys.:Condens. Matter 21 395502 (2009);
         "P. Giannozzi et al., J. Phys.:Condens. Matter 29 465901 (2017);
          URL http://www.quantum-espresso.org", 
     in publications or presentations arising from this work. More details at
     http://www.quantum-espresso.org/quote

     Parallel version (MPI), running on    10 processors

     MPI processes distributed on     1 nodes
     R & G space division:  proc/nbgrp/npool/nimage =      10
     Waiting for input...
     Reading input from standard input

     Current dimensions of program PWSCF are:
     Max number of different atomic species (ntypx) = 10
     Max number of k-points (npk) =  40000
     Max angular momentum in pseudopotentials (lmaxx) =  3
     file Zr.pbe-spn-kjpaw_psl.1.0.0.UPF: wavefunction(s)  4S 4P renormalized
     file Te.pbe-n-kjpaw_psl.1.0.0.UPF: wavefunction(s)  5S 5P renormalized

     Subspace diagonalization in iterative solution of the eigenvalue problem:
     a serial algorithm will be used

     Message from routine setup:
     using ibrav=0 with symmetry is DISCOURAGED, use correct ibrav instead
 
     Parallelization info
     --------------------
     sticks:   dense  smooth     PW     G-vecs:    dense   smooth      PW
     Min         734     293     87               115340    29174    4753
     Max         735     295     88               115345    29176    4760
     Sum        7345    2937    873              1153415   291749   47557
 


     bravais-lattice index     =            0
     lattice parameter (alat)  =      15.5510  a.u.
     unit-cell volume          =    3018.5011 (a.u.)^3
     number of atoms/cell      =           12
     number of atomic types    =            2
     number of electrons       =        84.00
     number of Kohn-Sham states=           50
     kinetic-energy cutoff     =      80.0000  Ry
     charge density cutoff     =     800.0000  Ry
     scf convergence threshold =      1.0E-10
     mixing beta               =       0.7000
     number of iterations used =            8  plain     mixing
     Exchange-correlation= SLA  PW   PBX  PBC
                           (   1   4   3   4   0   0   0)

     celldm(1)=  15.551040  celldm(2)=   0.000000  celldm(3)=   0.000000
     celldm(4)=   0.000000  celldm(5)=   0.000000  celldm(6)=   0.000000

     crystal axes: (cart. coord. in units of alat)
               a(1) = (   0.246007  -0.969268   0.000000 )  
               a(2) = (   0.246007   0.969268   0.000000 )  
               a(3) = (   0.000000   0.000000   1.683031 )  

     reciprocal axes: (cart. coord. in units 2 pi/alat)
               b(1) = (  2.032465 -0.515853  0.000000 )  
               b(2) = (  2.032465  0.515853  0.000000 )  
               b(3) = (  0.000000  0.000000  0.594166 )  


     PseudoPot. # 1 for Zr read from file:
     pseudo/Zr.pbe-spn-kjpaw_psl.1.0.0.UPF
     MD5 check sum: 02112c41713a0468aff2bb39ef194e36
     Pseudo is Projector augmented-wave + core cor, Zval = 12.0
     Generated using &quot;atomic&quot; code by A. Dal Corso  v.6.2.2
     Shape of augmentation charge: PSQ
     Using radial grid of 1225 points,  6 beta functions with: 
                l(1) =   0
                l(2) =   0
                l(3) =   1
                l(4) =   1
                l(5) =   2
                l(6) =   2
     Q(r) pseudized with 0 coefficients 


     PseudoPot. # 2 for Te read from file:
     pseudo/Te.pbe-n-kjpaw_psl.1.0.0.UPF
     MD5 check sum: 66247bff2bd9dbf220fbb0bf5ab56e9d
     Pseudo is Projector augmented-wave + core cor, Zval =  6.0
     Generated using &quot;atomic&quot; code by A. Dal Corso  v.6.3
     Shape of augmentation charge: PSQ
     Using radial grid of 1245 points,  6 beta functions with: 
                l(1) =   0
                l(2) =   0
                l(3) =   1
                l(4) =   1
                l(5) =   2
                l(6) =   2
     Q(r) pseudized with 0 coefficients 


     atomic species   valence    mass     pseudopotential
        Zr            12.00    91.22000     Zr( 1.00)
        Te             6.00   127.60000     Te( 1.00)

      8 Sym. Ops., with inversion, found ( 4 have fractional translation)



   Cartesian axes

     site n.     atom                  positions (alat units)
         1           Zr  tau(   1) = (   0.0000000   0.5961860   0.4207578  )
         2           Zr  tau(   2) = (   0.2460067   0.3730821   1.2622733  )
         3           Te  tau(   3) = (   0.2460067   0.3340591   0.4207578  )
         4           Te  tau(   4) = (   0.0000000   0.6352091   1.2622733  )
         5           Te  tau(   5) = (   0.2460067   0.8141144   0.2549908  )
         6           Te  tau(   6) = (   0.0000000   0.1551537   1.4280403  )
         7           Te  tau(   7) = (   0.2460067   0.8141144   0.5865248  )
         8           Te  tau(   8) = (   0.0000000   0.1551537   1.0965063  )
         9           Te  tau(   9) = (   0.0000000   0.4313967   0.7466292  )
        10           Te  tau(  10) = (   0.2460067   0.5378714   0.9364019  )
        11           Te  tau(  11) = (   0.0000000   0.4313967   0.0948863  )
        12           Te  tau(  12) = (   0.2460067   0.5378714   1.5881447  )

     number of k points=    63  Methfessel-Paxton smearing, width (Ry)=  0.0030
                       cart. coord. in units 2pi/alat
        k(    1) = (   0.0000000   0.0000000   0.0000000), wk =   0.0078125
        k(    2) = (   0.0000000   0.0000000   0.1485415), wk =   0.0156250
        k(    3) = (   0.0000000   0.0000000  -0.2970830), wk =   0.0078125
        k(    4) = (   0.2540581   0.0644816   0.0000000), wk =   0.0312500
        k(    5) = (   0.2540581   0.0644816   0.1485415), wk =   0.0625000
        k(    6) = (   0.2540581   0.0644816  -0.2970830), wk =   0.0312500
        k(    7) = (   0.5081162   0.1289633   0.0000000), wk =   0.0312500
        k(    8) = (   0.5081162   0.1289633   0.1485415), wk =   0.0625000
        k(    9) = (   0.5081162   0.1289633  -0.2970830), wk =   0.0312500
        k(   10) = (   0.7621743   0.1934449   0.0000000), wk =   0.0312500
        k(   11) = (   0.7621743   0.1934449   0.1485415), wk =   0.0625000
        k(   12) = (   0.7621743   0.1934449  -0.2970830), wk =   0.0312500
        k(   13) = (  -1.0162324  -0.2579266   0.0000000), wk =   0.0156250
        k(   14) = (  -1.0162324  -0.2579266   0.1485415), wk =   0.0312500
        k(   15) = (  -1.0162324  -0.2579266  -0.2970830), wk =   0.0156250
        k(   16) = (   0.5081162   0.0000000   0.0000000), wk =   0.0156250
        k(   17) = (   0.5081162   0.0000000   0.1485415), wk =   0.0312500
        k(   18) = (   0.5081162   0.0000000  -0.2970830), wk =   0.0156250
        k(   19) = (   0.7621743   0.0644816   0.0000000), wk =   0.0312500
        k(   20) = (   0.7621743   0.0644816   0.1485415), wk =   0.0625000
        k(   21) = (   0.7621743   0.0644816  -0.2970830), wk =   0.0312500
        k(   22) = (   1.0162324   0.1289633   0.0000000), wk =   0.0312500
        k(   23) = (   1.0162324   0.1289633   0.1485415), wk =   0.0625000
        k(   24) = (   1.0162324   0.1289633  -0.2970830), wk =   0.0312500
        k(   25) = (  -0.7621743  -0.3224082   0.0000000), wk =   0.0312500
        k(   26) = (  -0.7621743  -0.3224082   0.1485415), wk =   0.0625000
        k(   27) = (  -0.7621743  -0.3224082  -0.2970830), wk =   0.0312500
        k(   28) = (  -0.5081162  -0.2579266   0.0000000), wk =   0.0312500
        k(   29) = (  -0.5081162  -0.2579266   0.1485415), wk =   0.0625000
        k(   30) = (  -0.5081162  -0.2579266  -0.2970830), wk =   0.0312500
        k(   31) = (  -0.2540581  -0.1934449   0.0000000), wk =   0.0312500
        k(   32) = (  -0.2540581  -0.1934449   0.1485415), wk =   0.0625000
        k(   33) = (  -0.2540581  -0.1934449  -0.2970830), wk =   0.0312500
        k(   34) = (   0.0000000  -0.1289633   0.0000000), wk =   0.0156250
        k(   35) = (   0.0000000  -0.1289633   0.1485415), wk =   0.0312500
        k(   36) = (   0.0000000  -0.1289633  -0.2970830), wk =   0.0156250
        k(   37) = (   1.0162324   0.0000000   0.0000000), wk =   0.0156250
        k(   38) = (   1.0162324   0.0000000   0.1485415), wk =   0.0312500
        k(   39) = (   1.0162324   0.0000000  -0.2970830), wk =   0.0156250
        k(   40) = (   1.2702905   0.0644816   0.0000000), wk =   0.0312500
        k(   41) = (   1.2702905   0.0644816   0.1485415), wk =   0.0625000
        k(   42) = (   1.2702905   0.0644816  -0.2970830), wk =   0.0312500
        k(   43) = (  -0.5081162  -0.3868899   0.0000000), wk =   0.0312500
        k(   44) = (  -0.5081162  -0.3868899   0.1485415), wk =   0.0625000
        k(   45) = (  -0.5081162  -0.3868899  -0.2970830), wk =   0.0312500
        k(   46) = (  -0.2540581  -0.3224082   0.0000000), wk =   0.0312500
        k(   47) = (  -0.2540581  -0.3224082   0.1485415), wk =   0.0625000
        k(   48) = (  -0.2540581  -0.3224082  -0.2970830), wk =   0.0312500
        k(   49) = (   0.0000000  -0.2579266   0.0000000), wk =   0.0156250
        k(   50) = (   0.0000000  -0.2579266   0.1485415), wk =   0.0312500
        k(   51) = (   0.0000000  -0.2579266  -0.2970830), wk =   0.0156250
        k(   52) = (   1.5243485   0.0000000   0.0000000), wk =   0.0156250
        k(   53) = (   1.5243485   0.0000000   0.1485415), wk =   0.0312500
        k(   54) = (   1.5243485   0.0000000  -0.2970830), wk =   0.0156250
        k(   55) = (  -0.2540581  -0.4513715   0.0000000), wk =   0.0312500
        k(   56) = (  -0.2540581  -0.4513715   0.1485415), wk =   0.0625000
        k(   57) = (  -0.2540581  -0.4513715  -0.2970830), wk =   0.0312500
        k(   58) = (   0.0000000  -0.3868899   0.0000000), wk =   0.0156250
        k(   59) = (   0.0000000  -0.3868899   0.1485415), wk =   0.0312500
        k(   60) = (   0.0000000  -0.3868899  -0.2970830), wk =   0.0156250
        k(   61) = (  -2.0324647   0.0000000   0.0000000), wk =   0.0078125
        k(   62) = (  -2.0324647   0.0000000   0.1485415), wk =   0.0156250
        k(   63) = (  -2.0324647   0.0000000  -0.2970830), wk =   0.0078125

     Dense  grid:  1153415 G-vectors     FFT dimensions: ( 144, 144, 240)

     Smooth grid:   291749 G-vectors     FFT dimensions: (  90,  90, 150)

     Estimated max dynamical RAM per process >     657.19 MB

     Estimated total dynamical RAM >       6.42 GB

     Initial potential from superposition of free atoms

     starting charge   83.99353, renormalised to   84.00000
     Starting wfcs are   66 randomized atomic wfcs
     Checking if some PAW data can be deallocated... 

     total cpu time spent up to now is       44.6 secs

     Self-consistent Calculation

     iteration #  1     ecut=    80.00 Ry     beta= 0.70
     Davidson diagonalization with overlap
     ethr =  1.00E-02,  avg # of iterations =  2.3

     Threshold (ethr) on eigenvalues was too large:
     Diagonalizing with lowered threshold

     Davidson diagonalization with overlap
     ethr =  5.07E-04,  avg # of iterations =  3.9

     total cpu time spent up to now is      202.7 secs

     total energy              =   -4240.64355448 Ry
     estimated scf accuracy    <       0.46740571 Ry

     iteration #  2     ecut=    80.00 Ry     beta= 0.70
     Davidson diagonalization with overlap
     ethr =  5.56E-04,  avg # of iterations =  8.4

     total cpu time spent up to now is      316.5 secs

     total energy              =   -4240.52621428 Ry
     estimated scf accuracy    <       2.09280634 Ry

     iteration #  3     ecut=    80.00 Ry     beta= 0.70
     Davidson diagonalization with overlap
     ethr =  5.56E-04,  avg # of iterations =  5.2

     total cpu time spent up to now is      408.9 secs

     total energy              =   -4240.87179274 Ry
     estimated scf accuracy    <       0.00801758 Ry

     iteration #  4     ecut=    80.00 Ry     beta= 0.70
     Davidson diagonalization with overlap
     c_bands:  1 eigenvalues not converged
     c_bands:  2 eigenvalues not converged
     c_bands:  2 eigenvalues not converged
     c_bands:  1 eigenvalues not converged
     c_bands:  1 eigenvalues not converged
     c_bands:  2 eigenvalues not converged
     c_bands:  1 eigenvalues not converged
     c_bands:  3 eigenvalues not converged
     c_bands:  1 eigenvalues not converged
     c_bands:  3 eigenvalues not converged
     c_bands:  2 eigenvalues not converged
     c_bands:  1 eigenvalues not converged
     c_bands:  2 eigenvalues not converged
     c_bands:  2 eigenvalues not converged
     c_bands:  3 eigenvalues not converged
     c_bands:  1 eigenvalues not converged
     c_bands:  1 eigenvalues not converged
     ethr =  9.54E-06,  avg # of iterations = 16.1

     total cpu time spent up to now is      579.2 secs

     total energy              =   -4240.88048337 Ry
     estimated scf accuracy    <       0.02875616 Ry

     iteration #  5     ecut=    80.00 Ry     beta= 0.70
     Davidson diagonalization with overlap
     ethr =  9.54E-06,  avg # of iterations =  6.6

     total cpu time spent up to now is      668.5 secs

     total energy              =   -4240.88200162 Ry
     estimated scf accuracy    <       0.00509545 Ry

     iteration #  6     ecut=    80.00 Ry     beta= 0.70
     Davidson diagonalization with overlap
     ethr =  6.07E-06,  avg # of iterations =  3.9

     total cpu time spent up to now is      745.7 secs

     total energy              =   -4240.88247121 Ry
     estimated scf accuracy    <       0.00084078 Ry

     iteration #  7     ecut=    80.00 Ry     beta= 0.70
     Davidson diagonalization with overlap
     ethr =  1.00E-06,  avg # of iterations =  7.8

     total cpu time spent up to now is      852.8 secs

     total energy              =   -4240.88284020 Ry
     estimated scf accuracy    <       0.00067386 Ry

     iteration #  8     ecut=    80.00 Ry     beta= 0.70
     Davidson diagonalization with overlap
     ethr =  8.02E-07,  avg # of iterations =  2.0

     total cpu time spent up to now is      921.4 secs

     total energy              =   -4240.88286218 Ry
     estimated scf accuracy    <       0.00009864 Ry

     iteration #  9     ecut=    80.00 Ry     beta= 0.70
     Davidson diagonalization with overlap
     ethr =  1.17E-07,  avg # of iterations =  6.0

     total cpu time spent up to now is     1009.7 secs

     total energy              =   -4240.88289337 Ry
     estimated scf accuracy    <       0.00001012 Ry

     iteration # 10     ecut=    80.00 Ry     beta= 0.70
     Davidson diagonalization with overlap
     ethr =  1.21E-08,  avg # of iterations =  4.8

     total cpu time spent up to now is     1090.7 secs

     total energy              =   -4240.88289601 Ry
     estimated scf accuracy    <       0.00000036 Ry

     iteration # 11     ecut=    80.00 Ry     beta= 0.70
     Davidson diagonalization with overlap
     ethr =  4.28E-10,  avg # of iterations =  8.1

     total cpu time spent up to now is     1209.1 secs

     total energy              =   -4240.88289649 Ry
     estimated scf accuracy    <       0.00000023 Ry

     iteration # 12     ecut=    80.00 Ry     beta= 0.70
     Davidson diagonalization with overlap
     ethr =  2.75E-10,  avg # of iterations =  2.6

     total cpu time spent up to now is     1281.6 secs

     total energy              =   -4240.88289652 Ry
     estimated scf accuracy    <          8.6E-09 Ry

     iteration # 13     ecut=    80.00 Ry     beta= 0.70
     Davidson diagonalization with overlap
     ethr =  1.02E-11,  avg # of iterations =  9.7

     total cpu time spent up to now is     1408.6 secs

     total energy              =   -4240.88289653 Ry
     estimated scf accuracy    <       0.00000002 Ry

     iteration # 14     ecut=    80.00 Ry     beta= 0.70
     Davidson diagonalization with overlap
     ethr =  1.02E-11,  avg # of iterations =  2.5

     total cpu time spent up to now is     1481.1 secs

     total energy              =   -4240.88289653 Ry
     estimated scf accuracy    <          3.0E-09 Ry

     iteration # 15     ecut=    80.00 Ry     beta= 0.70
     Davidson diagonalization with overlap
     ethr =  3.53E-12,  avg # of iterations =  6.2

     total cpu time spent up to now is     1571.9 secs

     total energy              =   -4240.88289653 Ry
     estimated scf accuracy    <          6.3E-10 Ry

     iteration # 16     ecut=    80.00 Ry     beta= 0.70
     Davidson diagonalization with overlap
     ethr =  7.55E-13,  avg # of iterations =  2.9

     total cpu time spent up to now is     1641.6 secs

     total energy              =   -4240.88289653 Ry
     estimated scf accuracy    <          2.8E-10 Ry

     iteration # 17     ecut=    80.00 Ry     beta= 0.70
     Davidson diagonalization with overlap
     ethr =  3.36E-13,  avg # of iterations =  5.3

     total cpu time spent up to now is     1723.0 secs

     End of self-consistent calculation

          k = 0.0000 0.0000 0.0000 ( 36359 PWs)   bands (ev):

   -44.1723 -44.1723 -22.2754 -22.2754 -22.1880 -22.1880 -22.1147 -22.1145
    -8.7090  -8.5934  -7.1439  -7.0296  -5.9071  -5.3712  -4.7413  -4.6927
    -4.4625  -3.6777   0.0958   0.8811   0.8914   1.0906   1.1924   1.2395
     1.2821   1.5100   2.2691   2.8592   2.9032   2.9242   3.0892   3.4818
     3.9914   4.0584   4.1661   4.1817   4.3339   4.4610   4.6104   4.6191
     4.8072   4.9407   5.5981   5.7453   5.8124   6.0058   6.2921   6.4893
     7.2215   7.2569

          k = 0.0000 0.0000 0.1485 ( 36415 PWs)   bands (ev):

   -44.1723 -44.1723 -22.2754 -22.2754 -22.1880 -22.1880 -22.1147 -22.1145
    -8.6936  -8.6120  -7.1241  -7.0437  -5.8538  -5.4938  -4.7301  -4.6986
    -4.3129  -3.7747   0.1766   0.7656   0.9300   1.0139   1.1541   1.2455
     1.2756   1.8128   1.9783   2.8695   2.8947   2.9154   3.3022   3.5534
     3.8936   4.0972   4.1420   4.1792   4.3568   4.4208   4.5361   4.6768
     4.7050   4.7922   5.7440   5.8034   5.8073   6.2036   6.3866   6.4037
     7.0321   7.0381

          k = 0.0000 0.0000-0.2971 ( 36410 PWs)   bands (ev):

   -44.1723 -44.1723 -22.2754 -22.2754 -22.1880 -22.1880 -22.1146 -22.1146
    -8.6543  -8.6543  -7.0811  -7.0811  -5.7019  -5.7019  -4.7132  -4.7132
    -4.0224  -4.0224   0.4106   0.4106   1.0222   1.0222   1.2603   1.2603
     1.3941   1.3941   2.4456   2.4456   2.8931   2.8931   3.6955   3.6955
     3.8896   3.8896   4.2064   4.2064   4.2489   4.2489   4.5590   4.5590
     4.7483   4.7483   5.7855   5.7855   6.1099   6.1099   6.6181   6.6181
     6.6883   6.6883

          k = 0.2541 0.0645 0.0000 ( 36396 PWs)   bands (ev):

   -44.1719 -44.1719 -22.2735 -22.2735 -22.1974 -22.1973 -22.1137 -22.1135
    -8.5753  -8.4606  -7.0830  -6.9792  -5.8529  -5.3228  -4.6964  -4.6464
    -4.5610  -3.9070   0.1504   0.4048   0.8970   0.9881   1.0044   1.2547
     1.3291   1.5696   1.7556   2.6203   2.6596   3.0883   3.4060   3.6780
     3.7480   3.8300   3.9373   3.9909   4.1269   4.3271   4.3349   4.4705
     4.5777   4.6939   5.9884   6.0476   6.0552   6.1351   6.2976   6.8581
     7.0908   7.2760

          k = 0.2541 0.0645 0.1485 ( 36423 PWs)   bands (ev):

   -44.1719 -44.1719 -22.2735 -22.2735 -22.1974 -22.1973 -22.1136 -22.1135
    -8.5600  -8.4791  -7.0650  -6.9919  -5.7998  -5.4446  -4.6877  -4.6528
    -4.4248  -3.9806   0.2148   0.3993   0.7243   0.9383   1.0419   1.1945
     1.3421   1.7235   1.9618   2.6237   2.6453   2.8866   3.4536   3.5006
     3.5338   3.9128   4.0023   4.0909   4.1049   4.2860   4.4837   4.5698
     4.5844   4.7709   5.8946   5.9029   6.0979   6.1419   6.2068   6.9024
     7.1972   7.2320

          k = 0.2541 0.0645-0.2971 ( 36436 PWs)   bands (ev):

   -44.1719 -44.1719 -22.2735 -22.2735 -22.1973 -22.1973 -22.1136 -22.1136
    -8.5211  -8.5211  -7.0259  -7.0259  -5.6496  -5.6496  -4.6700  -4.6700
    -4.1774  -4.1774   0.3498   0.3498   0.6867   0.6867   1.1377   1.1377
     1.5814   1.5814   2.4489   2.4489   2.6483   2.6483   3.3387   3.3387
     3.7362   3.7362   4.0653   4.0653   4.2279   4.2279   4.5341   4.5341
     4.8397   4.8397   5.7317   5.7317   6.0962   6.0962   6.5388   6.5388
     7.3211   7.3212

          k = 0.5081 0.1290 0.0000 ( 36499 PWs)   bands (ev):

   -44.1711 -44.1711 -22.2688 -22.2688 -22.2199 -22.2199 -22.1112 -22.1110
    -8.1802  -8.0678  -6.9368  -6.8560  -5.7129  -5.1980  -4.9596  -4.5758
    -4.5550  -4.5285  -0.3800   0.1257   0.6826   0.7848   1.1782   1.3346
     1.5770   1.6425   1.7330   2.0637   2.1327   2.5330   2.6918   3.3779
     3.4673   3.5377   3.6264   3.7514   3.8105   3.8620   4.0637   4.2895
     4.3112   4.7239   6.1186   6.2743   6.3719   6.6152   6.6984   7.1618
     7.3530   7.5234

          k = 0.5081 0.1290 0.1485 ( 36476 PWs)   bands (ev):

   -44.1711 -44.1711 -22.2688 -22.2688 -22.2199 -22.2199 -22.1112 -22.1111
    -8.1652  -8.0859  -6.9229  -6.8660  -5.6634  -5.3341  -4.8481  -4.6106
    -4.5594  -4.5139  -0.3173   0.0505   0.6860   0.8453   1.1426   1.1716
     1.4158   1.6039   1.9975   2.0862   2.2360   2.5829   2.9369   3.2641
     3.4471   3.5089   3.5725   3.7429   3.8222   3.8274   3.9565   4.2912
     4.3421   4.4559   6.3365   6.4141   6.4836   6.6144   6.7945   7.0478
     7.2236   7.5199

          k = 0.5081 0.1290-0.2971 ( 36466 PWs)   bands (ev):

   -44.1711 -44.1711 -22.2688 -22.2688 -22.2199 -22.2199 -22.1111 -22.1111
    -8.1271  -8.1271  -6.8925  -6.8925  -5.5254  -5.5254  -4.7109  -4.7109
    -4.5281  -4.5281  -0.1459  -0.1459   0.8475   0.8475   1.0001   1.0001
     1.4980   1.4980   2.0591   2.0591   2.5995   2.5995   3.1837   3.1837
     3.3771   3.3771   3.6151   3.6151   3.8019   3.8019   4.0144   4.0144
     4.3860   4.3860   6.5511   6.5511   6.5776   6.5776   6.8985   6.8985
     7.3657   7.3657

          k = 0.7622 0.1934 0.0000 ( 36521 PWs)   bands (ev):

   -44.1702 -44.1702 -22.2641 -22.2641 -22.2423 -22.2423 -22.1087 -22.1086
    -7.5480  -7.4349  -6.7977  -6.7267  -5.8123  -5.7109  -5.1554  -5.0769
    -4.4451  -4.4051  -0.4528  -0.0994   0.0411   0.8475   0.8729   1.3291
     1.4961   1.5892   2.0239   2.0316   2.2216   2.3723   2.5015   2.8308
     3.0707   3.1441   3.3308   3.4111   3.5546   3.6366   3.7080   3.7835
     3.9657   4.6149   6.4646   6.5642   6.7276   7.0165   7.0267   7.0799
     7.4158   7.5926

          k = 0.7622 0.1934 0.1485 ( 36503 PWs)   bands (ev):

   -44.1702 -44.1702 -22.2641 -22.2641 -22.2423 -22.2423 -22.1087 -22.1086
    -7.5333  -7.4536  -6.7857  -6.7358  -5.7948  -5.7229  -5.1475  -5.0925
    -4.4384  -4.4103  -0.4150  -0.1665   0.1458   0.7152   0.9142   1.2615
     1.5027   1.5793   1.9498   2.0071   2.2475   2.5209   2.7329   2.9205
     2.9566   3.0350   3.2580   3.3096   3.5011   3.5835   3.8362   3.9302
     4.0276   4.4776   6.3058   6.5303   6.8352   6.9910   7.0741   7.1940
     7.2837   7.6644

          k = 0.7622 0.1934-0.2971 ( 36522 PWs)   bands (ev):

   -44.1702 -44.1702 -22.2641 -22.2641 -22.2423 -22.2423 -22.1086 -22.1086
    -7.4954  -7.4954  -6.7593  -6.7593  -5.7561  -5.7561  -5.1238  -5.1238
    -4.4236  -4.4236  -0.3050  -0.3050   0.4137   0.4137   1.0646   1.0646
     1.5491   1.5491   1.9569   1.9569   2.4931   2.4931   2.8601   2.8601
     2.9325   2.9325   3.2373   3.2373   3.5797   3.5797   3.9710   3.9710
     4.1507   4.1507   6.5750   6.5750   6.6260   6.6260   7.1142   7.1142
     7.6417   7.6419

          k =-1.0162-0.2579 0.0000 ( 36506 PWs)   bands (ev):

   -44.1698 -44.1698 -22.2621 -22.2621 -22.2516 -22.2516 -22.1076 -22.1076
    -6.8530  -6.8316  -6.6125  -6.6098  -6.5560  -6.5441  -5.0874  -5.0870
    -4.3855  -4.3527  -0.2526  -0.2369   0.0511   0.0715   1.0174   1.0228
     1.4668   1.6485   2.1734   2.3179   2.3586   2.3837   2.7530   2.8650
     2.9083   2.9705   3.1633   3.1812   3.2599   3.3184   3.4250   3.5635
     4.1200   4.3470   6.7740   6.8322   7.0312   7.0345   7.1614   7.2717
     7.2726   7.3387

          k =-1.0162-0.2579 0.1485 ( 36506 PWs)   bands (ev):

   -44.1698 -44.1698 -22.2621 -22.2621 -22.2516 -22.2516 -22.1076 -22.1076
    -6.8435  -6.8269  -6.6447  -6.6387  -6.5292  -6.5235  -5.0863  -5.0860
    -4.3823  -4.3591  -0.3343  -0.3292   0.2056   0.2143   1.0152   1.0202
     1.4558   1.5819   2.1070   2.2626   2.3036   2.3764   2.5964   2.6507
     2.9155   2.9795   3.1606   3.2481   3.4250   3.5061   3.5806   3.6423
     4.2099   4.3509   6.5147   6.5362   6.6680   6.7461   7.2846   7.2881
     7.5303   7.5930

          k =-1.0162-0.2579-0.2971 ( 36528 PWs)   bands (ev):

   -44.1698 -44.1698 -22.2621 -22.2621 -22.2516 -22.2516 -22.1076 -22.1076
    -6.8271  -6.8271  -6.6648  -6.6648  -6.5111  -6.5111  -5.0852  -5.0852
    -4.3723  -4.3723  -0.3877  -0.3877   0.3410   0.3410   1.0001   1.0001
     1.4911   1.4911   2.0545   2.0545   2.3161   2.3161   2.7144   2.7144
     2.7705   2.7705   3.2446   3.2446   3.5867   3.5867   3.7300   3.7300
     4.3549   4.3549   6.2273   6.2273   6.6019   6.6019   7.2940   7.2940
     7.6778   7.6778

          k = 0.5081 0.0000 0.0000 ( 36503 PWs)   bands (ev):

   -44.1711 -44.1711 -22.2688 -22.2688 -22.2199 -22.2199 -22.1112 -22.1110
    -8.1811  -8.0680  -6.9367  -6.8565  -5.7102  -5.1969  -4.9578  -4.5680
    -4.5545  -4.5373  -0.3764   0.1195   0.6945   0.7837   1.1753   1.2997
     1.5649   1.6388   1.7136   2.0698   2.1296   2.5234   2.6981   3.3893
     3.4574   3.5750   3.6394   3.7649   3.7957   3.9041   4.0397   4.2943
     4.3458   4.7080   6.1251   6.2494   6.3968   6.5799   6.6465   7.2043
     7.3545   7.5583

          k = 0.5081 0.0000 0.1485 ( 36453 PWs)   bands (ev):

   -44.1711 -44.1710 -22.2688 -22.2688 -22.2199 -22.2199 -22.1112 -22.1111
    -8.1660  -8.0863  -6.9227  -6.8664  -5.6610  -5.3329  -4.8457  -4.6100
    -4.5554  -4.5192  -0.3144   0.0469   0.6910   0.8468   1.1467   1.1611
     1.3782   1.5829   1.9977   2.1070   2.2118   2.5748   2.9424   3.2752
     3.4723   3.5008   3.5867   3.7579   3.8271   3.8870   3.8989   4.3076
     4.3795   4.4283   6.3211   6.4161   6.5008   6.5759   6.7606   7.0842
     7.2295   7.5450

          k = 0.5081 0.0000-0.2971 ( 36452 PWs)   bands (ev):

   -44.1711 -44.1711 -22.2688 -22.2688 -22.2199 -22.2199 -22.1111 -22.1111
    -8.1277  -8.1277  -6.8925  -6.8925  -5.5237  -5.5237  -4.7087  -4.7087
    -4.5296  -4.5296  -0.1453  -0.1453   0.8440   0.8440   1.0041   1.0041
     1.4666   1.4666   2.0650   2.0650   2.5866   2.5866   3.1973   3.1973
     3.3888   3.3888   3.6130   3.6130   3.8347   3.8347   3.9911   3.9911
     4.4022   4.4022   6.5366   6.5366   6.5696   6.5696   6.9142   6.9142
     7.3747   7.3747

          k = 0.7622 0.0645 0.0000 ( 36505 PWs)   bands (ev):

   -44.1702 -44.1702 -22.2641 -22.2641 -22.2423 -22.2423 -22.1087 -22.1086
    -7.5503  -7.4354  -6.7947  -6.7267  -5.8131  -5.7095  -5.1541  -5.0771
    -4.4328  -4.4180  -0.4455  -0.0922   0.0396   0.8396   0.8997   1.3416
     1.4757   1.5451   1.9910   2.0172   2.2538   2.3951   2.4558   2.8063
     3.0641   3.1752   3.3348   3.4244   3.6151   3.6479   3.7200   3.7864
     3.8744   4.6269   6.4640   6.5317   6.7624   7.0022   7.0369   7.0672
     7.4143   7.6528

          k = 0.7622 0.0645 0.1485 ( 36509 PWs)   bands (ev):

   -44.1702 -44.1702 -22.2641 -22.2641 -22.2423 -22.2423 -22.1087 -22.1086
    -7.5353  -7.4545  -6.7829  -6.7352  -5.7955  -5.7220  -5.1465  -5.0924
    -4.4297  -4.4193  -0.4077  -0.1597   0.1434   0.7073   0.9379   1.2715
     1.4803   1.5733   1.9159   1.9611   2.2650   2.5114   2.7376   2.9077
     2.9677   3.0280   3.2756   3.3199   3.5404   3.5716   3.8403   3.9621
     3.9713   4.4661   6.3313   6.5046   6.8569   6.9877   7.0538   7.2111
     7.2713   7.7105

          k = 0.7622 0.0645-0.2971 ( 36472 PWs)   bands (ev):

   -44.1702 -44.1702 -22.2641 -22.2641 -22.2423 -22.2423 -22.1086 -22.1086
    -7.4969  -7.4969  -6.7575  -6.7575  -5.7561  -5.7561  -5.1233  -5.1233
    -4.4237  -4.4237  -0.2979  -0.2979   0.4087   0.4087   1.0799   1.0799
     1.5460   1.5460   1.9059   1.9059   2.5087   2.5087   2.8592   2.8592
     2.9084   2.9084   3.2769   3.2769   3.5763   3.5763   4.0060   4.0060
     4.1013   4.1013   6.5962   6.5962   6.6314   6.6314   7.0873   7.0873
     7.6734   7.6734

          k = 1.0162 0.1290 0.0000 ( 36514 PWs)   bands (ev):

   -44.1698 -44.1698 -22.2621 -22.2621 -22.2516 -22.2516 -22.1076 -22.1076
    -6.8530  -6.8316  -6.6125  -6.6098  -6.5559  -6.5441  -5.0874  -5.0870
    -4.3855  -4.3527  -0.2581  -0.2314   0.0495   0.0731   1.0073   1.0334
     1.4748   1.6369   2.1690   2.3263   2.3686   2.3730   2.7378   2.8961
     2.9156   2.9606   3.1391   3.1850   3.2733   3.3027   3.4298   3.5696
     4.1002   4.3671   6.7657   6.8463   7.0030   7.0619   7.1876   7.2718
     7.2741   7.3126

          k = 1.0162 0.1290 0.1485 ( 36524 PWs)   bands (ev):

   -44.1698 -44.1698 -22.2621 -22.2621 -22.2516 -22.2516 -22.1076 -22.1076
    -6.8435  -6.8269  -6.6447  -6.6387  -6.5291  -6.5235  -5.0864  -5.0860
    -4.3823  -4.3591  -0.3369  -0.3268   0.2066   0.2137   1.0102   1.0252
     1.4632   1.5741   2.1084   2.2527   2.3058   2.3787   2.6047   2.6519
     2.8958   2.9956   3.1625   3.2440   3.4339   3.4814   3.5964   3.6447
     4.1901   4.3708   6.5130   6.5465   6.6638   6.7468   7.2856   7.2883
     7.5331   7.5875

          k = 1.0162 0.1290-0.2971 ( 36516 PWs)   bands (ev):

   -44.1698 -44.1698 -22.2621 -22.2621 -22.2516 -22.2516 -22.1076 -22.1076
    -6.8271  -6.8271  -6.6648  -6.6648  -6.5112  -6.5112  -5.0852  -5.0852
    -4.3723  -4.3723  -0.3878  -0.3878   0.3412   0.3412   0.9998   0.9998
     1.4923   1.4923   2.0535   2.0535   2.3152   2.3152   2.7007   2.7007
     2.7868   2.7868   3.2408   3.2408   3.5887   3.5887   3.7297   3.7297
     4.3559   4.3559   6.2309   6.2309   6.6007   6.6007   7.2945   7.2945
     7.6747   7.6747

          k =-0.7622-0.3224 0.0000 ( 36511 PWs)   bands (ev):

   -44.1702 -44.1702 -22.2641 -22.2641 -22.2423 -22.2423 -22.1087 -22.1086
    -7.5448  -7.4342  -6.8021  -6.7266  -5.8113  -5.7127  -5.1572  -5.0766
    -4.4545  -4.3950  -0.4629  -0.1089   0.0426   0.8418   0.8586   1.3140
     1.5008   1.6681   2.0540   2.0809   2.2142   2.3395   2.4924   2.8700
     3.0750   3.1402   3.3275   3.3881   3.5206   3.6024   3.6957   3.7225
     4.1089   4.5921   6.4654   6.6107   6.6934   6.9418   7.0622   7.1551
     7.4089   7.5123

          k =-0.7622-0.3224 0.1485 ( 36492 PWs)   bands (ev):

   -44.1702 -44.1702 -22.2641 -22.2641 -22.2423 -22.2423 -22.1087 -22.1086
    -7.5303  -7.4524  -6.7897  -6.7366  -5.7940  -5.7241  -5.1490  -5.0926
    -4.4451  -4.4032  -0.4252  -0.1759   0.1487   0.7262   0.8863   1.2468
     1.5222   1.5977   2.0021   2.0705   2.2358   2.5178   2.7003   2.9449
     2.9651   3.0493   3.2388   3.2886   3.4712   3.5711   3.8147   3.8817
     4.1255   4.4922   6.2732   6.5694   6.7989   6.9902   7.0928   7.2016
     7.3046   7.5825

          k =-0.7622-0.3224-0.2971 ( 36508 PWs)   bands (ev):

   -44.1702 -44.1702 -22.2641 -22.2641 -22.2423 -22.2423 -22.1086 -22.1086
    -7.4932  -7.4932  -6.7619  -6.7619  -5.7561  -5.7561  -5.1246  -5.1246
    -4.4235  -4.4235  -0.3148  -0.3148   0.4203   0.4203   1.0460   1.0460
     1.5553   1.5553   2.0225   2.0225   2.4789   2.4789   2.8612   2.8612
     2.9651   2.9651   3.1857   3.1857   3.5773   3.5773   3.9244   3.9244
     4.2185   4.2185   6.5458   6.5458   6.6204   6.6204   7.1565   7.1565
     7.5671   7.5672

          k =-0.5081-0.2579 0.0000 ( 36480 PWs)   bands (ev):

   -44.1711 -44.1711 -22.2688 -22.2688 -22.2199 -22.2199 -22.1112 -22.1110
    -8.1779  -8.0672  -6.9373  -6.8544  -5.7194  -5.2006  -4.9641  -4.5870
    -4.5563  -4.5148  -0.3888   0.1405   0.6602   0.7813   1.1856   1.4277
     1.6062   1.6505   1.7866   2.0501   2.1307   2.5526   2.6749   3.3299
     3.4775   3.4962   3.6123   3.6947   3.7772   3.8226   4.1302   4.2301
     4.2773   4.7574   6.1056   6.2939   6.3536   6.7044   6.8263   7.0658
     7.3469   7.4491

          k =-0.5081-0.2579 0.1485 ( 36485 PWs)   bands (ev):

   -44.1711 -44.1711 -22.2688 -22.2688 -22.2199 -22.2199 -22.1112 -22.1111
    -8.1631  -8.0850  -6.9234  -6.8650  -5.6691  -5.3369  -4.8537  -4.6120
    -4.5657  -4.5041  -0.3243   0.0591   0.6758   0.8394   1.1375   1.1963
     1.5121   1.6622   1.9842   2.0562   2.2791   2.5994   2.9220   3.2253
     3.3947   3.5282   3.5459   3.6956   3.7597   3.7926   4.0495   4.2345
     4.2950   4.4951   6.3679   6.3828   6.4723   6.7034   6.8799   6.9773
     7.2022   7.4675

          k =-0.5081-0.2579-0.2971 ( 36478 PWs)   bands (ev):

   -44.1711 -44.1711 -22.2688 -22.2688 -22.2199 -22.2199 -22.1111 -22.1111
    -8.1256  -8.1256  -6.8925  -6.8925  -5.5294  -5.5294  -4.7163  -4.7163
    -4.5247  -4.5247  -0.1474  -0.1474   0.8561   0.8561   0.9908   0.9908
     1.5823   1.5823   2.0384   2.0384   2.6378   2.6378   3.1320   3.1320
     3.3558   3.3558   3.6183   3.6183   3.7346   3.7346   4.0632   4.0632
     4.3506   4.3506   6.5236   6.5236   6.6538   6.6538   6.8638   6.8638
     7.3500   7.3500

          k =-0.2541-0.1934 0.0000 ( 36410 PWs)   bands (ev):

   -44.1719 -44.1719 -22.2735 -22.2735 -22.1974 -22.1973 -22.1137 -22.1135
    -8.5738  -8.4602  -7.0806  -6.9769  -5.8635  -5.3283  -4.7128  -4.6353
    -4.5583  -3.9074   0.1718   0.3993   0.8843   0.9917   1.0799   1.2793
     1.3593   1.6262   1.7640   2.5915   2.6487   3.0984   3.4503   3.6548
     3.7454   3.7614   3.9249   3.9257   3.9904   4.2466   4.2674   4.4438
     4.5256   4.7316   6.0269   6.0864   6.1061   6.2055   6.3308   6.9051
     7.0470   7.2178

          k =-0.2541-0.1934 0.1485 ( 36427 PWs)   bands (ev):

   -44.1719 -44.1719 -22.2735 -22.2735 -22.1974 -22.1973 -22.1136 -22.1135
    -8.5586  -8.4784  -7.0629  -6.9898  -5.8095  -5.4505  -4.7008  -4.6441
    -4.4236  -3.9807   0.2362   0.3968   0.7215   0.9667   1.0975   1.2166
     1.3706   1.7334   2.0004   2.5915   2.6394   2.9002   3.4564   3.4893
     3.5865   3.8494   3.9064   3.9223   4.0743   4.2464   4.4489   4.5012
     4.5645   4.8068   5.8840   5.9206   6.1565   6.2178   6.2690   6.8866
     7.1875   7.2066

          k =-0.2541-0.1934-0.2971 ( 36422 PWs)   bands (ev):

   -44.1719 -44.1719 -22.2735 -22.2735 -22.1973 -22.1973 -22.1136 -22.1136
    -8.5200  -8.5200  -7.0240  -7.0240  -5.6572  -5.6572  -4.6723  -4.6723
    -4.1769  -4.1769   0.3615   0.3615   0.6982   0.6982   1.1846   1.1846
     1.5937   1.5937   2.4606   2.4606   2.6455   2.6455   3.3349   3.3349
     3.7727   3.7727   3.8790   3.8790   4.2046   4.2046   4.4797   4.4797
     4.8549   4.8549   5.7240   5.7240   6.1732   6.1732   6.5418   6.5418
     7.3079   7.3080

          k = 0.0000-0.1290 0.0000 ( 36417 PWs)   bands (ev):

   -44.1723 -44.1723 -22.2755 -22.2754 -22.1880 -22.1880 -22.1147 -22.1145
    -8.7082  -8.5932  -7.1419  -7.0282  -5.9140  -5.3751  -4.7502  -4.6851
    -4.4628  -3.6778   0.1081   0.8921   0.9219   1.1031   1.2043   1.2392
     1.2819   1.5455   2.2648   2.8661   2.9015   2.9287   3.0908   3.5203
     3.9972   4.0246   4.0466   4.0472   4.2832   4.4615   4.5759   4.5960
     4.8054   4.9298   5.6140   5.7917   5.8674   6.0329   6.3006   6.5050
     7.1809   7.2571

          k = 0.0000-0.1290 0.1485 ( 36419 PWs)   bands (ev):

   -44.1723 -44.1723 -22.2754 -22.2754 -22.1880 -22.1880 -22.1147 -22.1145
    -8.6928  -8.6117  -7.1224  -7.0423  -5.8601  -5.4978  -4.7378  -4.6928
    -4.3130  -3.7747   0.1901   0.7849   0.9599   1.0179   1.1764   1.2452
     1.2754   1.8219   1.9915   2.8760   2.9005   2.9203   3.2900   3.5946
     3.9065   4.0075   4.0400   4.0858   4.3503   4.3615   4.5178   4.6697
     4.6828   4.7902   5.7747   5.8321   5.8598   6.2099   6.4048   6.4109
     6.9918   7.0398

          k = 0.0000-0.1290-0.2971 ( 36464 PWs)   bands (ev):

   -44.1723 -44.1723 -22.2754 -22.2754 -22.1880 -22.1880 -22.1146 -22.1146
    -8.6538  -8.6538  -7.0796  -7.0796  -5.7070  -5.7070  -4.7143  -4.7143
    -4.0223  -4.0223   0.4266   0.4266   1.0493   1.0493   1.2600   1.2600
     1.3970   1.3970   2.4597   2.4597   2.8989   2.8989   3.7061   3.7061
     3.8593   3.8593   4.1387   4.1387   4.1964   4.1964   4.5261   4.5261
     4.7451   4.7451   5.8294   5.8294   6.1261   6.1261   6.5995   6.5995
     6.6927   6.6927

          k = 1.0162 0.0000 0.0000 ( 36499 PWs)   bands (ev):

   -44.1698 -44.1698 -22.2621 -22.2621 -22.2516 -22.2516 -22.1076 -22.1076
    -6.8531  -6.8316  -6.6125  -6.6098  -6.5558  -6.5442  -5.0874  -5.0870
    -4.3855  -4.3527  -0.2619  -0.2275   0.0481   0.0746   1.0025   1.0388
     1.4841   1.6240   2.1650   2.3446   2.3525   2.3783   2.7269   2.9267
     2.9327   2.9407   3.1028   3.2183   3.2755   3.2767   3.4351   3.5756
     4.0832   4.3846   6.7596   6.8585   6.9906   7.0736   7.2495   7.2509
     7.2719   7.2754

          k = 1.0162 0.0000 0.1485 ( 36485 PWs)   bands (ev):

   -44.1698 -44.1698 -22.2621 -22.2621 -22.2516 -22.2516 -22.1076 -22.1076
    -6.8435  -6.8269  -6.6447  -6.6387  -6.5291  -6.5236  -5.0864  -5.0860
    -4.3823  -4.3591  -0.3387  -0.3253   0.2079   0.2128   1.0074   1.0279
     1.4719   1.5649   2.1101   2.2423   2.3111   2.3780   2.6184   2.6474
     2.8821   3.0067   3.1650   3.2389   3.4440   3.4634   3.6002   3.6514
     4.1741   4.3870   6.5130   6.5554   6.6598   6.7473   7.2865   7.2886
     7.5370   7.5809

          k = 1.0162 0.0000-0.2971 ( 36514 PWs)   bands (ev):

   -44.1698 -44.1698 -22.2621 -22.2621 -22.2516 -22.2516 -22.1076 -22.1076
    -6.8271  -6.8271  -6.6648  -6.6648  -6.5112  -6.5112  -5.0852  -5.0852
    -4.3723  -4.3723  -0.3879  -0.3879   0.3414   0.3414   0.9996   0.9996
     1.4936   1.4936   2.0525   2.0525   2.3144   2.3144   2.6908   2.6908
     2.7994   2.7994   3.2369   3.2369   3.5906   3.5906   3.7293   3.7293
     4.3569   4.3569   6.2346   6.2346   6.5995   6.5995   7.2950   7.2950
     7.6710   7.6710

          k = 1.2703 0.0645 0.0000 ( 36468 PWs)   bands (ev):

   -44.1702 -44.1702 -22.2641 -22.2641 -22.2423 -22.2423 -22.1087 -22.1086
    -7.5425  -7.4337  -6.8054  -6.7263  -5.8105  -5.7140  -5.1584  -5.0764
    -4.4595  -4.3895  -0.4700  -0.1152   0.0432   0.8230   0.8664   1.3047
     1.4990   1.7264   2.0719   2.1133   2.2777   2.3151   2.4043   2.9028
     3.0729   3.1637   3.3412   3.3662   3.5153   3.5597   3.6689   3.6883
     4.2137   4.5663   6.4659   6.6447   6.6782   6.8876   7.0881   7.2309
     7.3860   7.4797

          k = 1.2703 0.0645 0.1485 ( 36490 PWs)   bands (ev):

   -44.1702 -44.1702 -22.2641 -22.2641 -22.2423 -22.2423 -22.1087 -22.1086
    -7.5282  -7.4516  -6.7926  -6.7370  -5.7934  -5.7249  -5.1500  -5.0926
    -4.4486  -4.3994  -0.4323  -0.1824   0.1504   0.7337   0.8694   1.2370
     1.5281   1.6169   2.0507   2.0964   2.2514   2.5023   2.6595   2.9682
     2.9761   3.0727   3.2214   3.2712   3.4711   3.5398   3.7950   3.8486
     4.2009   4.4996   6.2528   6.5998   6.7690   6.9865   7.0905   7.2483
     7.3140   7.5217

          k = 1.2703 0.0645-0.2971 ( 36480 PWs)   bands (ev):

   -44.1702 -44.1702 -22.2641 -22.2641 -22.2423 -22.2423 -22.1086 -22.1086
    -7.4917  -7.4917  -6.7638  -6.7638  -5.7560  -5.7560  -5.1252  -5.1252
    -4.4235  -4.4235  -0.3216  -0.3216   0.4246   0.4246   1.0348   1.0348
     1.5608   1.5608   2.0640   2.0640   2.4755   2.4755   2.8659   2.8659
     2.9776   2.9776   3.1577   3.1577   3.5697   3.5697   3.8919   3.8919
     4.2669   4.2669   6.5269   6.5269   6.6165   6.6165   7.1904   7.1904
     7.4947   7.4948

          k =-0.5081-0.3869 0.0000 ( 36463 PWs)   bands (ev):

   -44.1711 -44.1710 -22.2688 -22.2688 -22.2199 -22.2199 -22.1112 -22.1110
    -8.1757  -8.0666  -6.9382  -6.8525  -5.7260  -5.2032  -4.9687  -4.5944
    -4.5575  -4.5049  -0.3974   0.1551   0.6434   0.7723   1.1934   1.5464
     1.6359   1.6608   1.8277   2.0260   2.1456   2.5488   2.6559   3.2647
     3.4531   3.5349   3.5997   3.6096   3.7196   3.8213   4.1333   4.2158
     4.2644   4.7867   6.0951   6.2298   6.4211   6.8009   6.9690   6.9767
     7.3281   7.4011

          k =-0.5081-0.3869 0.1485 ( 36477 PWs)   bands (ev):

   -44.1711 -44.1711 -22.2688 -22.2688 -22.2199 -22.2199 -22.1112 -22.1111
    -8.1611  -8.0842  -6.9241  -6.8637  -5.6749  -5.3398  -4.8593  -4.6137
    -4.5698  -4.4965  -0.3311   0.0675   0.6678   0.8306   1.1361   1.2199
     1.6340   1.7331   1.9444   2.0238   2.3392   2.5918   2.9009   3.1827
     3.3392   3.5279   3.5558   3.6180   3.7410   3.7600   4.1269   4.1697
     4.2641   4.5293   6.3145   6.4176   6.4747   6.7942   6.8666   7.0341
     7.1673   7.4362

          k =-0.5081-0.3869-0.2971 ( 36492 PWs)   bands (ev):

   -44.1711 -44.1711 -22.2688 -22.2688 -22.2199 -22.2199 -22.1111 -22.1111
    -8.1241  -8.1241  -6.8925  -6.8925  -5.5335  -5.5335  -4.7216  -4.7216
    -4.5214  -4.5214  -0.1488  -0.1488   0.8647   0.8647   0.9817   0.9817
     1.6891   1.6891   1.9984   1.9984   2.6955   2.6955   3.0424   3.0424
     3.3453   3.3453   3.6148   3.6148   3.6862   3.6862   4.0968   4.0968
     4.3274   4.3274   6.4947   6.4947   6.7062   6.7062   6.8462   6.8462
     7.3550   7.3550

          k =-0.2541-0.3224 0.0000 ( 36485 PWs)   bands (ev):

   -44.1719 -44.1719 -22.2735 -22.2735 -22.1974 -22.1973 -22.1137 -22.1135
    -8.5716  -8.4596  -7.0776  -6.9731  -5.8787  -5.3359  -4.7311  -4.6221
    -4.5569  -3.9081   0.1973   0.3919   0.8748   0.9984   1.1998   1.3122
     1.4110   1.7149   1.7801   2.5305   2.6048   3.1411   3.5194   3.5885
     3.6138   3.6695   3.8033   3.8983   3.9944   4.1665   4.1814   4.3998
     4.4352   4.7929   6.0347   6.1239   6.1998   6.3084   6.3768   6.9698
     6.9710   7.1406

          k =-0.2541-0.3224 0.1485 ( 36445 PWs)   bands (ev):

   -44.1719 -44.1719 -22.2735 -22.2735 -22.1974 -22.1973 -22.1136 -22.1135
    -8.5565  -8.4776  -7.0601  -6.9865  -5.8233  -5.4588  -4.7149  -4.6361
    -4.4221  -3.9808   0.2625   0.3931   0.7175   1.0001   1.1764   1.2742
     1.4205   1.7558   2.0637   2.5326   2.5975   2.9395   3.4411   3.4641
     3.6387   3.6580   3.7082   3.9226   4.0372   4.1820   4.3984   4.4263
     4.5365   4.8559   5.8725   5.9393   6.2134   6.2907   6.3693   6.8309
     7.1839   7.1929

          k =-0.2541-0.3224-0.2971 ( 36442 PWs)   bands (ev):

   -44.1719 -44.1719 -22.2735 -22.2735 -22.1973 -22.1973 -22.1136 -22.1136
    -8.5185  -8.5185  -7.0212  -7.0212  -5.6680  -5.6680  -4.6756  -4.6756
    -4.1761  -4.1761   0.3752   0.3752   0.7122   0.7122   1.2644   1.2644
     1.6200   1.6200   2.4767   2.4767   2.6307   2.6307   3.3205   3.3205
     3.6435   3.6435   3.8395   3.8395   4.1504   4.1504   4.4145   4.4145
     4.8737   4.8737   5.7194   5.7194   6.2364   6.2364   6.5512   6.5512
     7.2975   7.2975

          k = 0.0000-0.2579 0.0000 ( 36445 PWs)   bands (ev):

   -44.1723 -44.1723 -22.2755 -22.2754 -22.1880 -22.1880 -22.1147 -22.1145
    -8.7062  -8.5926  -7.1375  -7.0243  -5.9308  -5.3842  -4.7669  -4.6712
    -4.4640  -3.6781   0.1336   0.8969   1.0290   1.1298   1.2386   1.2605
     1.2814   1.6193   2.2548   2.8835   2.9030   2.9396   3.1005   3.6254
     3.6906   3.7340   4.0178   4.0375   4.1629   4.4577   4.4626   4.5612
     4.8012   4.9103   5.6529   5.8769   5.9569   6.1043   6.3213   6.5391
     7.0616   7.2575

          k = 0.0000-0.2579 0.1485 ( 36452 PWs)   bands (ev):

   -44.1723 -44.1723 -22.2754 -22.2754 -22.1880 -22.1880 -22.1147 -22.1145
    -8.6910  -8.6109  -7.1183  -7.0385  -5.8756  -5.5076  -4.7514  -4.6835
    -4.3133  -3.7748   0.2181   0.8221   1.0162   1.0705   1.2377   1.2446
     1.2748   1.8393   2.0290   2.8925   2.9198   2.9321   3.2668   3.6576
     3.7004   3.7557   3.9442   4.0580   4.2457   4.3332   4.4304   4.6541
     4.6560   4.7855   5.8264   5.8987   5.9425   6.2284   6.4284   6.4432
     6.8823   7.0437

          k = 0.0000-0.2579-0.2971 ( 36454 PWs)   bands (ev):

   -44.1723 -44.1723 -22.2754 -22.2754 -22.1880 -22.1880 -22.1146 -22.1146
    -8.6524  -8.6524  -7.0760  -7.0760  -5.7193  -5.7193  -4.7169  -4.7169
    -4.0222  -4.0222   0.4607   0.4607   1.1274   1.1274   1.2595   1.2595
     1.4069   1.4069   2.4968   2.4968   2.9131   2.9131   3.6116   3.6116
     3.7871   3.7871   4.0240   4.0240   4.1718   4.1718   4.4428   4.4428
     4.7378   4.7378   5.8991   5.8991   6.1675   6.1675   6.5442   6.5442
     6.7034   6.7034

          k = 1.5243 0.0000 0.0000 ( 36439 PWs)   bands (ev):

   -44.1711 -44.1710 -22.2688 -22.2688 -22.2199 -22.2199 -22.1112 -22.1110
    -8.1748  -8.0664  -6.9387  -6.8516  -5.7287  -5.2042  -4.9705  -4.5968
    -4.5581  -4.5014  -0.4009   0.1611   0.6375   0.7674   1.1967   1.6125
     1.6483   1.6726   1.8157   2.0156   2.1718   2.5285   2.6474   3.2466
     3.4347   3.5558   3.5662   3.6095   3.6946   3.8202   4.0950   4.2476
     4.2588   4.7980   6.0912   6.2002   6.4526   6.8439   6.9415   7.0417
     7.3053   7.4192

          k = 1.5243 0.0000 0.1485 ( 36476 PWs)   bands (ev):

   -44.1711 -44.1711 -22.2688 -22.2688 -22.2199 -22.2199 -22.1112 -22.1111
    -8.1602  -8.0838  -6.9245  -6.8631  -5.6773  -5.3409  -4.8616  -4.6144
    -4.5710  -4.4937  -0.3339   0.0709   0.6650   0.8263   1.1362   1.2292
     1.7184   1.7530   1.9145   1.9996   2.3874   2.5632   2.8874   3.1817
     3.2982   3.5334   3.5599   3.5928   3.7276   3.7531   4.1221   4.1750
     4.2533   4.5435   6.2871   6.4357   6.4768   6.8339   6.8353   7.1175
     7.1216   7.4605

          k = 1.5243 0.0000-0.2971 ( 36508 PWs)   bands (ev):

   -44.1711 -44.1711 -22.2688 -22.2688 -22.2199 -22.2199 -22.1111 -22.1111
    -8.1235  -8.1235  -6.8925  -6.8925  -5.5352  -5.5352  -4.7237  -4.7237
    -4.5201  -4.5201  -0.1494  -0.1494   0.8684   0.8684   0.9778   0.9778
     1.7498   1.7498   1.9664   1.9664   2.7337   2.7337   2.9857   2.9857
     3.3439   3.3439   3.6089   3.6089   3.6739   3.6739   4.1033   4.1033
     4.3245   4.3245   6.4827   6.4827   6.7120   6.7120   6.8503   6.8503
     7.3695   7.3696

          k =-0.2541-0.4514 0.0000 ( 36444 PWs)   bands (ev):

   -44.1719 -44.1719 -22.2735 -22.2735 -22.1974 -22.1973 -22.1137 -22.1135
    -8.5700  -8.4592  -7.0758  -6.9700  -5.8896  -5.3413  -4.7424  -4.6126
    -4.5578  -3.9086   0.2118   0.3869   0.8714   1.0041   1.3219   1.3344
     1.4227   1.7741   1.8299   2.4676   2.5354   3.2146   3.4436   3.4726
     3.5730   3.6110   3.8589   3.8923   3.9953   4.0854   4.1285   4.3211
     4.4163   4.8335   6.0287   6.1483   6.2847   6.3704   6.4019   6.9017
     7.0132   7.0925

          k =-0.2541-0.4514 0.1485 ( 36461 PWs)   bands (ev):

   -44.1719 -44.1719 -22.2735 -22.2735 -22.1974 -22.1973 -22.1136 -22.1135
    -8.5551  -8.4770  -7.0583  -6.9838  -5.8331  -5.4645  -4.7236  -4.6316
    -4.4213  -3.9809   0.2782   0.3903   0.7148   1.0221   1.2128   1.3568
     1.4598   1.7807   2.1314   2.4730   2.5245   2.9891   3.3746   3.4095
     3.5221   3.5927   3.7783   3.9205   4.0231   4.0901   4.3474   4.4036
     4.5192   4.8889   5.8656   5.9507   6.2541   6.3317   6.4292   6.7685
     7.1758   7.2076

          k =-0.2541-0.4514-0.2971 ( 36490 PWs)   bands (ev):

   -44.1719 -44.1719 -22.2735 -22.2735 -22.1973 -22.1973 -22.1136 -22.1136
    -8.5175  -8.5175  -7.0192  -7.0192  -5.6755  -5.6755  -4.6779  -4.6779
    -4.1755  -4.1755   0.3831   0.3831   0.7201   0.7201   1.3299   1.3299
     1.6509   1.6509   2.4818   2.4818   2.6108   2.6108   3.2900   3.2900
     3.5105   3.5105   3.9063   3.9063   4.0840   4.0840   4.3768   4.3768
     4.8855   4.8855   5.7184   5.7184   6.2586   6.2586   6.5584   6.5584
     7.2960   7.2960

          k = 0.0000-0.3869 0.0000 ( 36477 PWs)   bands (ev):

   -44.1723 -44.1723 -22.2755 -22.2754 -22.1880 -22.1880 -22.1147 -22.1145
    -8.7043  -8.5921  -7.1336  -7.0197  -5.9478  -5.3933  -4.7807  -4.6596
    -4.4659  -3.6784   0.1525   0.9053   1.1524   1.1700   1.2380   1.2808
     1.3285   1.6937   2.2461   2.9023   2.9127   2.9500   3.1233   3.3560
     3.4481   3.7720   3.9886   4.0345   4.0632   4.3051   4.4637   4.5265
     4.7972   4.8941   5.6921   5.9360   6.0137   6.1932   6.3424   6.5676
     6.9163   7.2577

          k = 0.0000-0.3869 0.1485 ( 36452 PWs)   bands (ev):

   -44.1723 -44.1723 -22.2755 -22.2754 -22.1880 -22.1880 -22.1147 -22.1145
    -8.6892  -8.6101  -7.1146  -7.0343  -5.8911  -5.5172  -4.7624  -4.6768
    -4.3137  -3.7748   0.2395   0.8540   1.0303   1.2055   1.2440   1.2743
     1.3080   1.8531   2.0777   2.9102   2.9439   2.9525   3.2213   3.3564
     3.4608   3.8421   3.9689   4.0297   4.1493   4.2868   4.3143   4.6403
     4.6455   4.7811   5.8744   5.9473   5.9923   6.2568   6.4463   6.4742
     6.7536   7.0475

          k = 0.0000-0.3869-0.2971 ( 36454 PWs)   bands (ev):

   -44.1723 -44.1723 -22.2754 -22.2754 -22.1880 -22.1880 -22.1146 -22.1146
    -8.6511  -8.6511  -7.0723  -7.0723  -5.7316  -5.7316  -4.7196  -4.7196
    -4.0220  -4.0220   0.4881   0.4881   1.2254   1.2254   1.2589   1.2589
     1.4239   1.4239   2.5434   2.5434   2.9279   2.9279   3.3293   3.3293
     3.8101   3.8101   4.0196   4.0196   4.1464   4.1464   4.3512   4.3512
     4.7310   4.7310   5.9417   5.9417   6.2140   6.2140   6.4726   6.4726
     6.7144   6.7144

          k =-2.0325 0.0000 0.0000 ( 36452 PWs)   bands (ev):

   -44.1723 -44.1723 -22.2755 -22.2754 -22.1880 -22.1880 -22.1147 -22.1145
    -8.7034  -8.5919  -7.1321  -7.0175  -5.9550  -5.3970  -4.7859  -4.6550
    -4.4669  -3.6785   0.1584   0.9098   1.1606   1.2378   1.2806   1.2835
     1.3097   1.7365   2.2438   2.9107   2.9194   2.9541   3.1233   3.2521
     3.2997   3.9057   3.9316   3.9764   4.0731   4.2178   4.4641   4.5122
     4.7955   4.8878   5.7084   5.9553   6.0314   6.2409   6.3513   6.5773
     6.8451   7.2577

          k =-2.0325 0.0000 0.1485 ( 36456 PWs)   bands (ev):

   -44.1723 -44.1723 -22.2755 -22.2754 -22.1880 -22.1880 -22.1147 -22.1145
    -8.6885  -8.6098  -7.1131  -7.0325  -5.8976  -5.5212  -4.7666  -4.6744
    -4.3138  -3.7748   0.2464   0.8668   1.0349   1.2438   1.2741   1.2990
     1.3167   1.8584   2.1058   2.9179   2.9486   2.9752   3.1470   3.2411
     3.3754   3.9267   3.9744   4.0178   4.1227   4.1863   4.3059   4.6351
     4.6425   4.7793   5.8949   5.9636   6.0065   6.2756   6.4538   6.4845
     6.6916   7.0491

          k =-2.0325 0.0000-0.2971 ( 36460 PWs)   bands (ev):

   -44.1723 -44.1723 -22.2754 -22.2754 -22.1880 -22.1880 -22.1146 -22.1146
    -8.6505  -8.6505  -7.0708  -7.0708  -5.7367  -5.7367  -4.7207  -4.7207
    -4.0219  -4.0219   0.4977   0.4977   1.2587   1.2587   1.2709   1.2709
     1.4362   1.4362   2.5697   2.5697   2.9342   2.9342   3.1942   3.1942
     3.8211   3.8211   4.0322   4.0322   4.1357   4.1357   4.3083   4.3083
     4.7284   4.7284   5.9553   5.9553   6.2375   6.2375   6.4354   6.4354
     6.7190   6.7190

     the Fermi energy is     5.3525 ev

!    total energy              =   -4240.88289653 Ry

     total all-electron energy =   -150287.576591 Ry
     estimated scf accuracy    <          4.8E-12 Ry
     smearing contrib. (-TS)   =       0.00000000 Ry
     internal energy E=F+TS    =   -4240.88289653 Ry

     The total energy is F=E-TS. E is the sum of the following terms:
     one-electron contribution =    -169.88915039 Ry
     hartree contribution      =     118.36501455 Ry
     xc contribution           =    -201.72927712 Ry
     ewald contribution        =    -220.06500059 Ry
     one-center paw contrib.   =   -3767.56448298 Ry

     convergence has been achieved in  17 iterations

     Forces acting on atoms (cartesian axes, Ry/au):

     atom    1 type  1   force =     0.00000000    0.03107253    0.00000000
     atom    2 type  1   force =     0.00000000   -0.03107253    0.00000000
     atom    3 type  2   force =     0.00000000   -0.00068057    0.00000000
     atom    4 type  2   force =     0.00000000    0.00068057    0.00000000
     atom    5 type  2   force =     0.00000000   -0.00731863   -0.00605051
     atom    6 type  2   force =    -0.00000000    0.00731863    0.00605051
     atom    7 type  2   force =     0.00000000   -0.00731863    0.00605051
     atom    8 type  2   force =     0.00000000    0.00731863   -0.00605051
     atom    9 type  2   force =     0.00000000   -0.06426383   -0.08118855
     atom   10 type  2   force =     0.00000000    0.06426383    0.08118855
     atom   11 type  2   force =     0.00000000   -0.06426383    0.08118855
     atom   12 type  2   force =    -0.00000000    0.06426383   -0.08118855

     Total force =     0.212552     Total SCF correction =     0.000003


     Computing stress (Cartesian axis) and pressure

          total   stress  (Ry/bohr**3)                   (kbar)     P=       19.72
   0.00018325   0.00000000   0.00000000           26.96        0.00        0.00
   0.00000000   0.00005576   0.00000000            0.00        8.20        0.00
   0.00000000   0.00000000   0.00016307            0.00        0.00       23.99

 
     init_run     :     35.80s CPU     36.81s WALL (       1 calls)
     electrons    :   1660.52s CPU   1678.35s WALL (       1 calls)
     forces       :      7.24s CPU      7.45s WALL (       1 calls)
     stress       :     48.50s CPU     49.19s WALL (       1 calls)

     Called by init_run:
     wfcinit      :     30.75s CPU     30.98s WALL (       1 calls)
     potinit      :      1.53s CPU      1.59s WALL (       1 calls)
     hinit0       :      1.76s CPU      2.19s WALL (       1 calls)

     Called by electrons:
     c_bands      :   1353.16s CPU   1360.51s WALL (      18 calls)
     sum_band     :    273.46s CPU    279.51s WALL (      18 calls)
     v_of_rho     :      8.67s CPU      9.33s WALL (      18 calls)
     newd         :     18.24s CPU     22.24s WALL (      18 calls)
     PAW_pot      :      6.50s CPU      6.51s WALL (      18 calls)
     mix_rho      :      1.54s CPU      1.59s WALL (      18 calls)

     Called by c_bands:
     init_us_2    :     13.79s CPU     13.84s WALL (    2457 calls)
     cegterg      :   1276.21s CPU   1282.86s WALL (    1134 calls)

     Called by *egterg:
     cdiaghg      :     26.73s CPU     26.86s WALL (    7639 calls)
     h_psi        :   1105.31s CPU   1111.71s WALL (    7765 calls)
     s_psi        :     50.18s CPU     50.26s WALL (    7765 calls)
     g_psi        :      2.20s CPU      2.22s WALL (    6568 calls)

     Called by h_psi:
     h_psi:calbec :     42.23s CPU     42.33s WALL (    7765 calls)
     vloc_psi     :   1008.87s CPU   1015.03s WALL (    7765 calls)
     add_vuspsi   :     50.11s CPU     50.19s WALL (    7765 calls)

     General routines
     calbec       :     55.88s CPU     56.01s WALL (    9214 calls)
     fft          :      7.67s CPU      8.17s WALL (     258 calls)
     ffts         :      0.21s CPU      0.21s WALL (      36 calls)
     fftw         :    997.37s CPU   1003.34s WALL (  410476 calls)
     interpolate  :      0.69s CPU      0.69s WALL (      18 calls)
 
     Parallel routines
     fft_scatt_xy :    275.57s CPU    277.23s WALL (  410770 calls)
     fft_scatt_yz :    168.76s CPU    170.11s WALL (  410770 calls)
 
     PWSCF        :  29m13.06s CPU  29m39.64s WALL

 
   This run was terminated on:  15:15:59  19Nov2021            

=------------------------------------------------------------------------------=
   JOB DONE.
=------------------------------------------------------------------------------=
