
     Program PWSCF v.6.7MaX starts on 19Nov2021 at 14:46:22 

     This program is part of the open-source Quantum ESPRESSO suite
     for quantum simulation of materials; please cite
         "P. Giannozzi et al., J. Phys.:Condens. Matter 21 395502 (2009);
         "P. Giannozzi et al., J. Phys.:Condens. Matter 29 465901 (2017);
          URL http://www.quantum-espresso.org", 
     in publications or presentations arising from this work. More details at
     http://www.quantum-espresso.org/quote

     Parallel version (MPI), running on    10 processors

     MPI processes distributed on     1 nodes
     R & G space division:  proc/nbgrp/npool/nimage =      10
     Waiting for input...
     Reading input from standard input

     Current dimensions of program PWSCF are:
     Max number of different atomic species (ntypx) = 10
     Max number of k-points (npk) =  40000
     Max angular momentum in pseudopotentials (lmaxx) =  3
     file Zr.pbe-spn-kjpaw_psl.1.0.0.UPF: wavefunction(s)  4S 4P renormalized
     file Te.pbe-n-kjpaw_psl.1.0.0.UPF: wavefunction(s)  5S 5P renormalized

     Subspace diagonalization in iterative solution of the eigenvalue problem:
     a serial algorithm will be used

     Message from routine setup:
     using ibrav=0 with symmetry is DISCOURAGED, use correct ibrav instead
 
     Parallelization info
     --------------------
     sticks:   dense  smooth     PW     G-vecs:    dense   smooth      PW
     Min         734     293     87               115340    29174    4753
     Max         735     295     88               115345    29176    4760
     Sum        7345    2937    873              1153415   291749   47557
 


     bravais-lattice index     =            0
     lattice parameter (alat)  =      15.5510  a.u.
     unit-cell volume          =    3018.5011 (a.u.)^3
     number of atoms/cell      =           12
     number of atomic types    =            2
     number of electrons       =        84.00
     number of Kohn-Sham states=           50
     kinetic-energy cutoff     =      80.0000  Ry
     charge density cutoff     =     800.0000  Ry
     scf convergence threshold =      1.0E-10
     mixing beta               =       0.7000
     number of iterations used =            8  plain     mixing
     Exchange-correlation= SLA  PW   PBX  PBC
                           (   1   4   3   4   0   0   0)

     celldm(1)=  15.551040  celldm(2)=   0.000000  celldm(3)=   0.000000
     celldm(4)=   0.000000  celldm(5)=   0.000000  celldm(6)=   0.000000

     crystal axes: (cart. coord. in units of alat)
               a(1) = (   0.246007  -0.969268   0.000000 )  
               a(2) = (   0.246007   0.969268   0.000000 )  
               a(3) = (   0.000000   0.000000   1.683031 )  

     reciprocal axes: (cart. coord. in units 2 pi/alat)
               b(1) = (  2.032465 -0.515853  0.000000 )  
               b(2) = (  2.032465  0.515853  0.000000 )  
               b(3) = (  0.000000  0.000000  0.594166 )  


     PseudoPot. # 1 for Zr read from file:
     pseudo/Zr.pbe-spn-kjpaw_psl.1.0.0.UPF
     MD5 check sum: 02112c41713a0468aff2bb39ef194e36
     Pseudo is Projector augmented-wave + core cor, Zval = 12.0
     Generated using &quot;atomic&quot; code by A. Dal Corso  v.6.2.2
     Shape of augmentation charge: PSQ
     Using radial grid of 1225 points,  6 beta functions with: 
                l(1) =   0
                l(2) =   0
                l(3) =   1
                l(4) =   1
                l(5) =   2
                l(6) =   2
     Q(r) pseudized with 0 coefficients 


     PseudoPot. # 2 for Te read from file:
     pseudo/Te.pbe-n-kjpaw_psl.1.0.0.UPF
     MD5 check sum: 66247bff2bd9dbf220fbb0bf5ab56e9d
     Pseudo is Projector augmented-wave + core cor, Zval =  6.0
     Generated using &quot;atomic&quot; code by A. Dal Corso  v.6.3
     Shape of augmentation charge: PSQ
     Using radial grid of 1245 points,  6 beta functions with: 
                l(1) =   0
                l(2) =   0
                l(3) =   1
                l(4) =   1
                l(5) =   2
                l(6) =   2
     Q(r) pseudized with 0 coefficients 


     atomic species   valence    mass     pseudopotential
        Zr            12.00    91.22000     Zr( 1.00)
        Te             6.00   127.60000     Te( 1.00)

      8 Sym. Ops., with inversion, found ( 4 have fractional translation)



   Cartesian axes

     site n.     atom                  positions (alat units)
         1           Zr  tau(   1) = (   0.0000000   0.6107100   0.4207578  )
         2           Zr  tau(   2) = (   0.2460067   0.3585581   1.2622733  )
         3           Te  tau(   3) = (   0.2460067   0.3343509   0.4207578  )
         4           Te  tau(   4) = (   0.0000000   0.6349172   1.2622733  )
         5           Te  tau(   5) = (   0.2460067   0.8075031   0.2504779  )
         6           Te  tau(   6) = (   0.0000000   0.1617650   1.4325532  )
         7           Te  tau(   7) = (   0.2460067   0.8075031   0.5910376  )
         8           Te  tau(   8) = (   0.0000000   0.1617650   1.0919934  )
         9           Te  tau(   9) = (   0.0000000   0.4059530   0.7223541  )
        10           Te  tau(  10) = (   0.2460067   0.5633151   0.9606770  )
        11           Te  tau(  11) = (   0.0000000   0.4059530   0.1191614  )
        12           Te  tau(  12) = (   0.2460067   0.5633151   1.5638696  )

     number of k points=    63  Methfessel-Paxton smearing, width (Ry)=  0.0030
                       cart. coord. in units 2pi/alat
        k(    1) = (   0.0000000   0.0000000   0.0000000), wk =   0.0078125
        k(    2) = (   0.0000000   0.0000000   0.1485415), wk =   0.0156250
        k(    3) = (   0.0000000   0.0000000  -0.2970830), wk =   0.0078125
        k(    4) = (   0.2540581   0.0644816   0.0000000), wk =   0.0312500
        k(    5) = (   0.2540581   0.0644816   0.1485415), wk =   0.0625000
        k(    6) = (   0.2540581   0.0644816  -0.2970830), wk =   0.0312500
        k(    7) = (   0.5081162   0.1289633   0.0000000), wk =   0.0312500
        k(    8) = (   0.5081162   0.1289633   0.1485415), wk =   0.0625000
        k(    9) = (   0.5081162   0.1289633  -0.2970830), wk =   0.0312500
        k(   10) = (   0.7621743   0.1934449   0.0000000), wk =   0.0312500
        k(   11) = (   0.7621743   0.1934449   0.1485415), wk =   0.0625000
        k(   12) = (   0.7621743   0.1934449  -0.2970830), wk =   0.0312500
        k(   13) = (  -1.0162324  -0.2579266   0.0000000), wk =   0.0156250
        k(   14) = (  -1.0162324  -0.2579266   0.1485415), wk =   0.0312500
        k(   15) = (  -1.0162324  -0.2579266  -0.2970830), wk =   0.0156250
        k(   16) = (   0.5081162   0.0000000   0.0000000), wk =   0.0156250
        k(   17) = (   0.5081162   0.0000000   0.1485415), wk =   0.0312500
        k(   18) = (   0.5081162   0.0000000  -0.2970830), wk =   0.0156250
        k(   19) = (   0.7621743   0.0644816   0.0000000), wk =   0.0312500
        k(   20) = (   0.7621743   0.0644816   0.1485415), wk =   0.0625000
        k(   21) = (   0.7621743   0.0644816  -0.2970830), wk =   0.0312500
        k(   22) = (   1.0162324   0.1289633   0.0000000), wk =   0.0312500
        k(   23) = (   1.0162324   0.1289633   0.1485415), wk =   0.0625000
        k(   24) = (   1.0162324   0.1289633  -0.2970830), wk =   0.0312500
        k(   25) = (  -0.7621743  -0.3224082   0.0000000), wk =   0.0312500
        k(   26) = (  -0.7621743  -0.3224082   0.1485415), wk =   0.0625000
        k(   27) = (  -0.7621743  -0.3224082  -0.2970830), wk =   0.0312500
        k(   28) = (  -0.5081162  -0.2579266   0.0000000), wk =   0.0312500
        k(   29) = (  -0.5081162  -0.2579266   0.1485415), wk =   0.0625000
        k(   30) = (  -0.5081162  -0.2579266  -0.2970830), wk =   0.0312500
        k(   31) = (  -0.2540581  -0.1934449   0.0000000), wk =   0.0312500
        k(   32) = (  -0.2540581  -0.1934449   0.1485415), wk =   0.0625000
        k(   33) = (  -0.2540581  -0.1934449  -0.2970830), wk =   0.0312500
        k(   34) = (   0.0000000  -0.1289633   0.0000000), wk =   0.0156250
        k(   35) = (   0.0000000  -0.1289633   0.1485415), wk =   0.0312500
        k(   36) = (   0.0000000  -0.1289633  -0.2970830), wk =   0.0156250
        k(   37) = (   1.0162324   0.0000000   0.0000000), wk =   0.0156250
        k(   38) = (   1.0162324   0.0000000   0.1485415), wk =   0.0312500
        k(   39) = (   1.0162324   0.0000000  -0.2970830), wk =   0.0156250
        k(   40) = (   1.2702905   0.0644816   0.0000000), wk =   0.0312500
        k(   41) = (   1.2702905   0.0644816   0.1485415), wk =   0.0625000
        k(   42) = (   1.2702905   0.0644816  -0.2970830), wk =   0.0312500
        k(   43) = (  -0.5081162  -0.3868899   0.0000000), wk =   0.0312500
        k(   44) = (  -0.5081162  -0.3868899   0.1485415), wk =   0.0625000
        k(   45) = (  -0.5081162  -0.3868899  -0.2970830), wk =   0.0312500
        k(   46) = (  -0.2540581  -0.3224082   0.0000000), wk =   0.0312500
        k(   47) = (  -0.2540581  -0.3224082   0.1485415), wk =   0.0625000
        k(   48) = (  -0.2540581  -0.3224082  -0.2970830), wk =   0.0312500
        k(   49) = (   0.0000000  -0.2579266   0.0000000), wk =   0.0156250
        k(   50) = (   0.0000000  -0.2579266   0.1485415), wk =   0.0312500
        k(   51) = (   0.0000000  -0.2579266  -0.2970830), wk =   0.0156250
        k(   52) = (   1.5243485   0.0000000   0.0000000), wk =   0.0156250
        k(   53) = (   1.5243485   0.0000000   0.1485415), wk =   0.0312500
        k(   54) = (   1.5243485   0.0000000  -0.2970830), wk =   0.0156250
        k(   55) = (  -0.2540581  -0.4513715   0.0000000), wk =   0.0312500
        k(   56) = (  -0.2540581  -0.4513715   0.1485415), wk =   0.0625000
        k(   57) = (  -0.2540581  -0.4513715  -0.2970830), wk =   0.0312500
        k(   58) = (   0.0000000  -0.3868899   0.0000000), wk =   0.0156250
        k(   59) = (   0.0000000  -0.3868899   0.1485415), wk =   0.0312500
        k(   60) = (   0.0000000  -0.3868899  -0.2970830), wk =   0.0156250
        k(   61) = (  -2.0324647   0.0000000   0.0000000), wk =   0.0078125
        k(   62) = (  -2.0324647   0.0000000   0.1485415), wk =   0.0156250
        k(   63) = (  -2.0324647   0.0000000  -0.2970830), wk =   0.0078125

     Dense  grid:  1153415 G-vectors     FFT dimensions: ( 144, 144, 240)

     Smooth grid:   291749 G-vectors     FFT dimensions: (  90,  90, 150)

     Estimated max dynamical RAM per process >     657.19 MB

     Estimated total dynamical RAM >       6.42 GB

     Initial potential from superposition of free atoms

     starting charge   83.99353, renormalised to   84.00000
     Starting wfcs are   66 randomized atomic wfcs
     Checking if some PAW data can be deallocated... 

     total cpu time spent up to now is       42.4 secs

     Self-consistent Calculation

     iteration #  1     ecut=    80.00 Ry     beta= 0.70
     Davidson diagonalization with overlap
     ethr =  1.00E-02,  avg # of iterations =  2.0

     Threshold (ethr) on eigenvalues was too large:
     Diagonalizing with lowered threshold

     Davidson diagonalization with overlap
     ethr =  3.83E-04,  avg # of iterations =  4.1

     total cpu time spent up to now is      202.5 secs

     total energy              =   -4240.71894172 Ry
     estimated scf accuracy    <       0.42781221 Ry

     iteration #  2     ecut=    80.00 Ry     beta= 0.70
     Davidson diagonalization with overlap
     ethr =  5.09E-04,  avg # of iterations =  7.4

     total cpu time spent up to now is      314.5 secs

     total energy              =   -4240.62317370 Ry
     estimated scf accuracy    <       2.17822917 Ry

     iteration #  3     ecut=    80.00 Ry     beta= 0.70
     Davidson diagonalization with overlap
     ethr =  5.09E-04,  avg # of iterations =  5.0

     total cpu time spent up to now is      409.9 secs

     total energy              =   -4240.91669899 Ry
     estimated scf accuracy    <       0.02170215 Ry

     iteration #  4     ecut=    80.00 Ry     beta= 0.70
     Davidson diagonalization with overlap
     c_bands:  1 eigenvalues not converged
     c_bands:  1 eigenvalues not converged
     c_bands:  1 eigenvalues not converged
     c_bands:  1 eigenvalues not converged
     c_bands:  1 eigenvalues not converged
     c_bands:  2 eigenvalues not converged
     ethr =  2.58E-05,  avg # of iterations = 16.3

     total cpu time spent up to now is      573.9 secs

     total energy              =   -4240.93547313 Ry
     estimated scf accuracy    <       0.11556150 Ry

     iteration #  5     ecut=    80.00 Ry     beta= 0.70
     Davidson diagonalization with overlap
     ethr =  2.58E-05,  avg # of iterations =  4.8

     total cpu time spent up to now is      657.9 secs

     total energy              =   -4240.93841054 Ry
     estimated scf accuracy    <       0.02666553 Ry

     iteration #  6     ecut=    80.00 Ry     beta= 0.70
     Davidson diagonalization with overlap
     ethr =  2.58E-05,  avg # of iterations =  2.7

     total cpu time spent up to now is      731.7 secs

     total energy              =   -4240.93916482 Ry
     estimated scf accuracy    <       0.00449343 Ry

     iteration #  7     ecut=    80.00 Ry     beta= 0.70
     Davidson diagonalization with overlap
     c_bands:  1 eigenvalues not converged
     c_bands:  1 eigenvalues not converged
     c_bands:  1 eigenvalues not converged
     c_bands:  1 eigenvalues not converged
     ethr =  5.35E-06,  avg # of iterations = 11.8

     total cpu time spent up to now is      848.2 secs

     total energy              =   -4240.94129323 Ry
     estimated scf accuracy    <       0.00266664 Ry

     iteration #  8     ecut=    80.00 Ry     beta= 0.70
     Davidson diagonalization with overlap
     c_bands:  1 eigenvalues not converged
     ethr =  3.17E-06,  avg # of iterations =  2.5

     total cpu time spent up to now is      917.7 secs

     total energy              =   -4240.94130747 Ry
     estimated scf accuracy    <       0.00062569 Ry

     iteration #  9     ecut=    80.00 Ry     beta= 0.70
     Davidson diagonalization with overlap
     ethr =  7.45E-07,  avg # of iterations =  5.7

     total cpu time spent up to now is      999.0 secs

     total energy              =   -4240.94143043 Ry
     estimated scf accuracy    <       0.00001334 Ry

     iteration # 10     ecut=    80.00 Ry     beta= 0.70
     Davidson diagonalization with overlap
     c_bands:  1 eigenvalues not converged
     c_bands:  1 eigenvalues not converged
     ethr =  1.59E-08,  avg # of iterations = 10.6

     total cpu time spent up to now is     1125.1 secs

     total energy              =   -4240.94145843 Ry
     estimated scf accuracy    <       0.00001428 Ry

     iteration # 11     ecut=    80.00 Ry     beta= 0.70
     Davidson diagonalization with overlap
     ethr =  1.59E-08,  avg # of iterations =  2.8

     total cpu time spent up to now is     1199.4 secs

     total energy              =   -4240.94146073 Ry
     estimated scf accuracy    <       0.00000006 Ry

     iteration # 12     ecut=    80.00 Ry     beta= 0.70
     Davidson diagonalization with overlap
     c_bands:  1 eigenvalues not converged
     c_bands:  1 eigenvalues not converged
     ethr =  6.63E-11,  avg # of iterations = 13.0

     total cpu time spent up to now is     1369.9 secs

     total energy              =   -4240.94146090 Ry
     estimated scf accuracy    <       0.00000163 Ry

     iteration # 13     ecut=    80.00 Ry     beta= 0.70
     Davidson diagonalization with overlap
     c_bands:  1 eigenvalues not converged
     ethr =  6.63E-11,  avg # of iterations =  7.1

     total cpu time spent up to now is     1483.2 secs

     total energy              =   -4240.94146107 Ry
     estimated scf accuracy    <       0.00000002 Ry

     iteration # 14     ecut=    80.00 Ry     beta= 0.70
     Davidson diagonalization with overlap
     ethr =  2.46E-11,  avg # of iterations =  4.0

     total cpu time spent up to now is     1559.3 secs

     total energy              =   -4240.94146107 Ry
     estimated scf accuracy    <          1.2E-09 Ry

     iteration # 15     ecut=    80.00 Ry     beta= 0.70
     Davidson diagonalization with overlap
     ethr =  1.48E-12,  avg # of iterations =  8.0

     total cpu time spent up to now is     1670.8 secs

     total energy              =   -4240.94146107 Ry
     estimated scf accuracy    <          5.1E-10 Ry

     iteration # 16     ecut=    80.00 Ry     beta= 0.70
     Davidson diagonalization with overlap
     ethr =  6.10E-13,  avg # of iterations =  2.0

     total cpu time spent up to now is     1731.7 secs

     End of self-consistent calculation

          k = 0.0000 0.0000 0.0000 ( 36359 PWs)   bands (ev):

   -44.1511 -44.1511 -22.2921 -22.2920 -22.1891 -22.1891 -22.0731 -22.0730
    -7.6669  -7.1600  -7.0378  -6.7821  -6.5278  -5.3311  -5.1008  -4.8983
    -4.8433  -3.8618   0.4373   0.6938   0.7701   1.0659   1.4953   1.5801
     2.4159   2.4701   2.6355   3.0086   3.0281   3.0383   3.1140   3.4998
     3.5712   3.6294   3.8694   4.0469   4.1232   4.2919   4.3212   4.6280
     5.1039   5.5525   5.5793   5.6372   5.8518   6.0294   6.3731   6.8055
     6.9383   7.2929

          k = 0.0000 0.0000 0.1485 ( 36415 PWs)   bands (ev):

   -44.1511 -44.1511 -22.2921 -22.2920 -22.1891 -22.1891 -22.0730 -22.0730
    -7.6278  -7.3326  -6.9033  -6.7912  -6.4177  -5.6935  -4.9164  -4.8546
    -4.7039  -3.9788   0.4817   0.7317   0.9120   1.0517   1.0535   2.0142
     2.1108   2.4414   2.5944   3.0271   3.0319   3.0954   3.3435   3.3662
     3.6694   3.7225   3.8529   4.0390   4.0744   4.3117   4.3341   4.6430
     4.9076   5.0559   5.7244   5.9240   6.0259   6.0504   6.5976   6.6833
     6.7716   7.2681

          k = 0.0000 0.0000-0.2971 ( 36410 PWs)   bands (ev):

   -44.1511 -44.1511 -22.2920 -22.2920 -22.1891 -22.1891 -22.0730 -22.0730
    -7.5128  -7.5128  -6.8224  -6.8224  -6.1076  -6.1076  -4.8824  -4.8824
    -4.2894  -4.2894   0.6688   0.6688   0.8628   0.8628   1.4357   1.4357
     2.5106   2.5106   2.6927   2.6927   3.0266   3.0266   3.3785   3.3785
     3.8379   3.8379   3.9190   3.9190   4.3207   4.3207   4.4196   4.4196
     4.7152   4.7152   5.9624   5.9624   6.2352   6.2352   6.3798   6.3798
     7.1481   7.1481

          k = 0.2541 0.0645 0.0000 ( 36396 PWs)   bands (ev):

   -44.1507 -44.1507 -22.2901 -22.2901 -22.1991 -22.1991 -22.0718 -22.0717
    -7.5532  -7.0787  -6.9347  -6.7359  -6.4676  -5.2952  -5.0915  -4.8573
    -4.8014  -4.0003   0.5245   0.8284   0.9062   1.1843   1.2979   1.4697
     1.9274   2.0747   2.2181   2.5299   2.5885   3.0258   3.4681   3.6684
     3.6837   3.7078   3.7560   3.8001   4.0194   4.1659   4.2214   4.2619
     4.4645   4.6961   5.7000   5.9906   6.2810   6.5444   6.6213   6.8346
     7.0040   7.1444

          k = 0.2541 0.0645 0.1485 ( 36423 PWs)   bands (ev):

   -44.1507 -44.1507 -22.2901 -22.2901 -22.1991 -22.1991 -22.0718 -22.0717
    -7.5150  -7.2311  -6.8325  -6.7438  -6.3482  -5.6383  -4.8944  -4.8149
    -4.7062  -4.0941   0.5564   0.8688   0.9793   0.9926   1.1436   1.5915
     1.8598   2.3172   2.4544   2.5445   2.5566   2.9219   3.2647   3.3020
     3.6481   3.6757   3.8442   3.8937   4.0020   4.0955   4.2331   4.2870
     4.6924   5.0256   5.8076   5.8265   6.2144   6.2735   6.4739   6.6792
     7.2593   7.2963

          k = 0.2541 0.0645-0.2971 ( 36436 PWs)   bands (ev):

   -44.1507 -44.1507 -22.2901 -22.2901 -22.1991 -22.1991 -22.0718 -22.0718
    -7.4035  -7.4035  -6.7698  -6.7698  -6.0372  -6.0372  -4.8482  -4.8482
    -4.3521  -4.3521   0.6998   0.6998   0.9720   0.9720   1.2796   1.2796
     2.2980   2.2980   2.5769   2.5769   2.6887   2.6887   3.1019   3.1019
     3.5932   3.5932   3.8681   3.8681   4.0372   4.0372   4.2836   4.2836
     5.1710   5.1710   5.7443   5.7443   6.0861   6.0861   6.4638   6.4638
     7.4388   7.4390

          k = 0.5081 0.1290 0.0000 ( 36499 PWs)   bands (ev):

   -44.1498 -44.1498 -22.2854 -22.2854 -22.2231 -22.2231 -22.0688 -22.0687
    -7.2348  -6.8875  -6.6381  -6.6062  -6.2722  -5.2304  -5.1170  -4.7495
    -4.6982  -4.4186   0.5255   0.7036   0.7194   1.1895   1.2904   1.5051
     1.6660   1.8203   1.9994   2.1288   2.1698   2.3016   2.3776   3.2566
     3.3632   3.4260   3.4702   3.5751   3.7656   3.8589   3.9496   4.1543
     4.6066   5.2984   5.3957   5.8890   5.9402   6.5455   6.5580   6.8520
     7.3895   7.5662

          k = 0.5081 0.1290 0.1485 ( 36476 PWs)   bands (ev):

   -44.1498 -44.1498 -22.2854 -22.2854 -22.2231 -22.2231 -22.0688 -22.0687
    -7.2010  -6.9701  -6.6336  -6.6105  -6.1357  -5.5069  -4.9219  -4.7266
    -4.6919  -4.4513   0.5154   0.7334   0.8649   1.0787   1.2271   1.4291
     1.4773   1.6602   2.0351   2.0743   2.3237   2.5381   2.8243   3.2853
     3.3585   3.4100   3.4784   3.5799   3.6454   3.7696   3.8464   4.2146
     4.3903   4.5815   6.0319   6.0989   6.2227   6.5519   6.6000   6.7268
     7.2326   7.4855

          k = 0.5081 0.1290-0.2971 ( 36466 PWs)   bands (ev):

   -44.1498 -44.1498 -22.2854 -22.2854 -22.2231 -22.2231 -22.0688 -22.0688
    -7.1048  -7.1048  -6.6221  -6.6221  -5.8441  -5.8441  -4.7983  -4.7983
    -4.5540  -4.5540   0.6136   0.6136   1.0904   1.0904   1.2379   1.2379
     1.3694   1.3694   2.0588   2.0588   2.7684   2.7684   3.1151   3.1151
     3.3451   3.3451   3.5493   3.5493   3.7024   3.7024   3.8321   3.8321
     4.3015   4.3015   6.2655   6.2655   6.5360   6.5360   6.7774   6.7774
     7.0926   7.0926

          k = 0.7622 0.1934 0.0000 ( 36521 PWs)   bands (ev):

   -44.1489 -44.1489 -22.2805 -22.2805 -22.2471 -22.2471 -22.0658 -22.0658
    -6.8441  -6.7199  -6.3486  -6.1931  -5.9256  -5.3007  -5.2643  -5.0603
    -4.6277  -4.5926   0.0075   0.2503   0.6480   1.1337   1.1478   1.2364
     1.4764   1.5932   1.9153   1.9650   2.2711   2.4171   2.4879   2.7508
     2.7829   3.2567   3.3006   3.3632   3.6378   3.6693   3.7786   3.8085
     3.9653   4.5673   5.7675   6.1841   6.2614   6.7011   6.7373   6.8339
     7.2129   7.5679

          k = 0.7622 0.1934 0.1485 ( 36503 PWs)   bands (ev):

   -44.1489 -44.1489 -22.2805 -22.2805 -22.2471 -22.2471 -22.0658 -22.0658
    -6.8260  -6.7372  -6.3436  -6.2547  -5.8113  -5.4196  -5.1957  -5.0803
    -4.6172  -4.5933   0.0769   0.3613   0.5264   0.9561   1.1462   1.2064
     1.4919   1.6643   1.7399   2.0836   2.1349   2.6404   2.6840   2.7938
     2.8658   3.1435   3.2733   3.3796   3.4822   3.6329   3.6734   3.8983
     3.9956   4.7096   5.4166   6.2521   6.5562   6.6045   6.7610   6.9093
     6.9888   7.4768

          k = 0.7622 0.1934-0.2971 ( 36522 PWs)   bands (ev):

   -44.1489 -44.1489 -22.2805 -22.2805 -22.2471 -22.2471 -22.0658 -22.0658
    -6.7813  -6.7813  -6.3186  -6.3186  -5.6092  -5.6092  -5.1308  -5.1308
    -4.6006  -4.6006   0.2674   0.2674   0.6830   0.6830   1.0713   1.0713
     1.5745   1.5745   1.9861   1.9861   2.3699   2.3699   2.7964   2.7964
     2.9950   2.9950   3.3896   3.3896   3.5727   3.5727   3.8012   3.8012
     4.1807   4.1807   5.9919   5.9919   6.3750   6.3750   6.8491   6.8491
     7.3159   7.3159

          k =-1.0162-0.2579 0.0000 ( 36506 PWs)   bands (ev):

   -44.1485 -44.1485 -22.2784 -22.2784 -22.2571 -22.2571 -22.0645 -22.0645
    -6.6881  -6.6680  -5.8003  -5.7892  -5.7024  -5.6906  -5.5075  -5.5069
    -4.5702  -4.5507   0.0746   0.1006   0.4220   0.4414   1.0122   1.0206
     1.4679   1.6744   2.2296   2.3547   2.3549   2.3586   2.7900   2.8243
     2.8244   2.9224   3.2608   3.2670   3.2946   3.4871   3.6099   3.6181
     3.8214   3.9474   6.3797   6.4085   6.4651   6.5495   6.9408   7.0106
     7.0238   7.0245

          k =-1.0162-0.2579 0.1485 ( 36506 PWs)   bands (ev):

   -44.1485 -44.1485 -22.2784 -22.2784 -22.2571 -22.2571 -22.0645 -22.0645
    -6.6845  -6.6703  -5.8101  -5.8011  -5.7002  -5.6941  -5.4922  -5.4915
    -4.5728  -4.5589  -0.0148  -0.0062   0.6414   0.6467   1.0279   1.0535
     1.4641   1.5812   1.9274   2.0004   2.3697   2.3810   2.7473   2.7495
     2.9492   2.9785   3.1677   3.2178   3.5510   3.5521   3.7094   3.7350
     4.0956   4.1133   5.8674   5.8764   6.3952   6.4681   6.9225   6.9599
     7.2358   7.2616

          k =-1.0162-0.2579-0.2971 ( 36528 PWs)   bands (ev):

   -44.1485 -44.1485 -22.2784 -22.2784 -22.2571 -22.2571 -22.0645 -22.0645
    -6.6767  -6.6767  -5.8157  -5.8157  -5.6975  -5.6975  -5.4774  -5.4774
    -4.5713  -4.5713  -0.0708  -0.0708   0.9088   0.9088   1.0173   1.0173
     1.5620   1.5620   1.5805   1.5805   2.3710   2.3710   2.7842   2.7842
     2.9313   2.9313   3.1941   3.1941   3.5983   3.5983   3.7764   3.7764
     4.5695   4.5695   5.3020   5.3020   6.3599   6.3599   6.9616   6.9616
     7.3072   7.3072

          k = 0.5081 0.0000 0.0000 ( 36503 PWs)   bands (ev):

   -44.1498 -44.1498 -22.2854 -22.2854 -22.2231 -22.2231 -22.0688 -22.0687
    -7.2407  -6.8896  -6.6392  -6.5992  -6.2677  -5.2312  -5.1135  -4.7453
    -4.7036  -4.4181   0.5248   0.7103   0.7157   1.1577   1.2854   1.4843
     1.6702   1.8265   2.0127   2.1163   2.1313   2.2945   2.3853   3.2391
     3.3758   3.4089   3.5257   3.5964   3.7721   3.8449   3.9910   4.1916
     4.6088   5.2989   5.4016   5.9190   5.9247   6.5058   6.5067   6.8873
     7.4160   7.5743

          k = 0.5081 0.0000 0.1485 ( 36453 PWs)   bands (ev):

   -44.1498 -44.1498 -22.2854 -22.2854 -22.2231 -22.2231 -22.0688 -22.0687
    -7.2068  -6.9744  -6.6294  -6.6039  -6.1342  -5.5076  -4.9160  -4.7284
    -4.6925  -4.4521   0.5139   0.7282   0.8703   1.0804   1.1996   1.4383
     1.4438   1.6550   2.0301   2.0788   2.3271   2.5095   2.8170   3.2720
     3.3553   3.4399   3.4907   3.5968   3.6403   3.8232   3.8431   4.2499
     4.4054   4.5817   6.0315   6.1162   6.2283   6.5011   6.5645   6.7576
     7.2578   7.4903

          k = 0.5081 0.0000-0.2971 ( 36452 PWs)   bands (ev):

   -44.1498 -44.1498 -22.2854 -22.2854 -22.2231 -22.2231 -22.0688 -22.0688
    -7.1103  -7.1103  -6.6155  -6.6155  -5.8445  -5.8445  -4.7942  -4.7942
    -4.5568  -4.5568   0.6094   0.6094   1.0906   1.0906   1.2636   1.2636
     1.3193   1.3193   2.0590   2.0590   2.7593   2.7593   3.0937   3.0937
     3.3392   3.3392   3.5992   3.5992   3.7136   3.7136   3.8352   3.8352
     4.3255   4.3255   6.2811   6.2811   6.5013   6.5013   6.7923   6.7923
     7.0944   7.0944

          k = 0.7622 0.0645 0.0000 ( 36505 PWs)   bands (ev):

   -44.1489 -44.1489 -22.2805 -22.2805 -22.2471 -22.2471 -22.0658 -22.0658
    -6.8535  -6.7181  -6.3393  -6.1955  -5.9249  -5.2961  -5.2651  -5.0599
    -4.6209  -4.6006   0.0017   0.2618   0.6720   1.1358   1.1672   1.2506
     1.4341   1.5500   1.8922   1.9786   2.2337   2.3876   2.4710   2.7235
     2.7671   3.3133   3.3310   3.3712   3.6068   3.6574   3.8289   3.8324
     3.9834   4.6097   5.7658   6.1991   6.2254   6.6692   6.7905   6.7947
     7.2354   7.5723

          k = 0.7622 0.0645 0.1485 ( 36509 PWs)   bands (ev):

   -44.1489 -44.1489 -22.2805 -22.2805 -22.2471 -22.2471 -22.0658 -22.0658
    -6.8344  -6.7379  -6.3347  -6.2530  -5.8125  -5.4198  -5.1926  -5.0794
    -4.6125  -4.5991   0.0750   0.3679   0.5358   0.9774   1.1452   1.2202
     1.4546   1.6614   1.7663   2.0113   2.0627   2.6544   2.6741   2.7641
     2.8535   3.1444   3.3393   3.3985   3.4462   3.6501   3.6983   3.9158
     4.0413   4.7086   5.4434   6.2353   6.5609   6.5946   6.7780   6.9063
     6.9685   7.4954

          k = 0.7622 0.0645-0.2971 ( 36472 PWs)   bands (ev):

   -44.1489 -44.1489 -22.2805 -22.2805 -22.2471 -22.2471 -22.0658 -22.0658
    -6.7866  -6.7866  -6.3119  -6.3119  -5.6108  -5.6108  -5.1285  -5.1285
    -4.6010  -4.6010   0.2712   0.2712   0.6787   0.6787   1.0968   1.0968
     1.5686   1.5686   1.9366   1.9366   2.3346   2.3346   2.7910   2.7910
     2.9897   2.9897   3.4561   3.4561   3.5691   3.5691   3.7924   3.7924
     4.2047   4.2047   6.0161   6.0161   6.3765   6.3765   6.8147   6.8147
     7.3422   7.3422

          k = 1.0162 0.1290 0.0000 ( 36514 PWs)   bands (ev):

   -44.1485 -44.1485 -22.2784 -22.2784 -22.2571 -22.2571 -22.0645 -22.0645
    -6.6881  -6.6680  -5.7998  -5.7896  -5.7024  -5.6906  -5.5078  -5.5066
    -4.5702  -4.5507   0.0687   0.1066   0.4163   0.4472   1.0070   1.0274
     1.4731   1.6657   2.2327   2.3427   2.3476   2.3629   2.7911   2.8188
     2.8557   2.9189   3.2356   3.2797   3.3060   3.4822   3.6031   3.6258
     3.8051   3.9588   6.3751   6.4141   6.4603   6.5550   6.9522   7.0132
     7.0179   7.0267

          k = 1.0162 0.1290 0.1485 ( 36524 PWs)   bands (ev):

   -44.1485 -44.1485 -22.2784 -22.2784 -22.2571 -22.2571 -22.0645 -22.0645
    -6.6845  -6.6703  -5.8098  -5.8014  -5.7002  -5.6940  -5.4926  -5.4911
    -4.5728  -4.5590  -0.0168  -0.0045   0.6408   0.6480   1.0320   1.0504
     1.4684   1.5781   1.9344   1.9889   2.3630   2.3770   2.7008   2.8047
     2.9632   2.9956   3.1432   3.2183   3.5320   3.5936   3.6998   3.7133
     4.0828   4.1319   5.8566   5.8895   6.3925   6.4706   6.9294   6.9587
     7.2396   7.2580

          k = 1.0162 0.1290-0.2971 ( 36516 PWs)   bands (ev):

   -44.1485 -44.1485 -22.2784 -22.2784 -22.2571 -22.2571 -22.0645 -22.0645
    -6.6767  -6.6767  -5.8157  -5.8157  -5.6975  -5.6975  -5.4774  -5.4774
    -4.5713  -4.5713  -0.0709  -0.0709   0.9079   0.9079   1.0194   1.0194
     1.5582   1.5582   1.5850   1.5850   2.3608   2.3608   2.7677   2.7677
     2.9824   2.9824   3.1680   3.1680   3.6046   3.6046   3.7689   3.7689
     4.5699   4.5699   5.3039   5.3039   6.3596   6.3596   6.9639   6.9639
     7.3072   7.3072

          k =-0.7622-0.3224 0.0000 ( 36511 PWs)   bands (ev):

   -44.1489 -44.1489 -22.2805 -22.2805 -22.2471 -22.2471 -22.0658 -22.0658
    -6.8293  -6.7239  -6.3618  -6.1897  -5.9268  -5.3073  -5.2633  -5.0608
    -4.6335  -4.5852   0.0158   0.2345   0.6159   1.1066   1.1645   1.2174
     1.4996   1.6606   1.9478   1.9629   2.3409   2.4379   2.5129   2.7840
     2.8049   3.1754   3.2738   3.3857   3.5933   3.6557   3.7827   3.7880
     3.9295   4.4986   5.7700   6.1771   6.3060   6.6558   6.7498   6.9010
     7.1749   7.5667

          k =-0.7622-0.3224 0.1485 ( 36492 PWs)   bands (ev):

   -44.1489 -44.1489 -22.2805 -22.2805 -22.2471 -22.2471 -22.0658 -22.0658
    -6.8128  -6.7372  -6.3564  -6.2574  -5.8096  -5.4195  -5.1999  -5.0816
    -4.6210  -4.5881   0.0791   0.3536   0.5118   0.9311   1.1526   1.1884
     1.5423   1.6609   1.7152   2.1880   2.2365   2.6274   2.6935   2.8247
     2.8795   3.1643   3.1845   3.3639   3.4787   3.6243   3.6527   3.8707
     3.9189   4.7097   5.3806   6.2793   6.5343   6.6134   6.7457   6.9380
     7.0129   7.4442

          k =-0.7622-0.3224-0.2971 ( 36508 PWs)   bands (ev):

   -44.1489 -44.1489 -22.2805 -22.2805 -22.2471 -22.2471 -22.0658 -22.0658
    -6.7734  -6.7734  -6.3284  -6.3284  -5.6068  -5.6068  -5.1341  -5.1341
    -4.6000  -4.6000   0.2618   0.2618   0.6890   0.6890   1.0420   1.0420
     1.5805   1.5805   2.0431   2.0431   2.4376   2.4376   2.8071   2.8071
     3.0011   3.0011   3.2974   3.2974   3.5763   3.5763   3.7997   3.7997
     4.1492   4.1492   5.9600   5.9600   6.3715   6.3715   6.9073   6.9073
     7.2711   7.2711

          k =-0.5081-0.2579 0.0000 ( 36480 PWs)   bands (ev):

   -44.1498 -44.1498 -22.2854 -22.2854 -22.2231 -22.2231 -22.0688 -22.0687
    -7.2199  -6.8830  -6.6353  -6.6228  -6.2835  -5.2284  -5.1254  -4.7561
    -4.6888  -4.4196   0.5295   0.6883   0.7211   1.2822   1.3016   1.5563
     1.6610   1.8118   1.9727   2.1626   2.2394   2.3147   2.3610   3.3018
     3.3485   3.3598   3.4524   3.4895   3.7362   3.8677   3.8891   4.0798
     4.5980   5.2935   5.3840   5.8034   5.9943   6.6445   6.6782   6.7675
     7.3189   7.5503

          k =-0.5081-0.2579 0.1485 ( 36485 PWs)   bands (ev):

   -44.1498 -44.1498 -22.2854 -22.2854 -22.2231 -22.2231 -22.0688 -22.0687
    -7.1863  -6.9595  -6.6448  -6.6265  -6.1394  -5.5052  -4.9356  -4.7236
    -4.6896  -4.4493   0.5197   0.7418   0.8519   1.0751   1.3037   1.4274
     1.5425   1.6712   2.0452   2.0693   2.3183   2.5981   2.8416   3.3079
     3.3236   3.3681   3.4675   3.5049   3.6379   3.7239   3.8279   4.1404
     4.3459   4.5801   6.0109   6.0762   6.2134   6.6474   6.6723   6.6973
     7.1681   7.4772

          k =-0.5081-0.2579-0.2971 ( 36478 PWs)   bands (ev):

   -44.1498 -44.1498 -22.2854 -22.2854 -22.2231 -22.2231 -22.0688 -22.0688
    -7.0909  -7.0909  -6.6389  -6.6389  -5.8429  -5.8429  -4.8081  -4.8081
    -4.5478  -4.5478   0.6233   0.6233   1.0892   1.0892   1.2111   1.2111
     1.4633   1.4633   2.0567   2.0567   2.7930   2.7930   3.1684   3.1684
     3.3551   3.3551   3.4160   3.4160   3.6926   3.6926   3.8201   3.8201
     4.2422   4.2422   6.2272   6.2272   6.6097   6.6097   6.7487   6.7487
     7.0935   7.0935

          k =-0.2541-0.1934 0.0000 ( 36410 PWs)   bands (ev):

   -44.1507 -44.1507 -22.2901 -22.2901 -22.1991 -22.1991 -22.0718 -22.0717
    -7.5426  -7.0694  -6.9328  -6.7493  -6.4834  -5.2942  -5.0988  -4.8648
    -4.7918  -4.0014   0.5544   0.9018   0.9153   1.2101   1.3299   1.4700
     1.9499   2.0942   2.2222   2.4950   2.5703   3.0939   3.3883   3.5665
     3.6113   3.6940   3.7755   3.8169   3.9346   4.1563   4.1985   4.2237
     4.4025   4.6702   5.7501   6.0080   6.3277   6.5931   6.6059   6.8510
     6.9977   7.0676

          k =-0.2541-0.1934 0.1485 ( 36427 PWs)   bands (ev):

   -44.1507 -44.1507 -22.2901 -22.2901 -22.1991 -22.1991 -22.0718 -22.0717
    -7.5045  -7.2210  -6.8386  -6.7569  -6.3567  -5.6376  -4.9125  -4.8099
    -4.6995  -4.0939   0.5814   0.9221   1.0048   1.0314   1.1692   1.6082
     1.8621   2.3191   2.4735   2.5094   2.5597   2.9128   3.2691   3.3387
     3.5408   3.6485   3.7302   3.8882   3.9710   4.0778   4.1893   4.2329
     4.6785   5.0086   5.7885   5.8461   6.1881   6.3273   6.5520   6.6907
     7.2152   7.2889

          k =-0.2541-0.1934-0.2971 ( 36422 PWs)   bands (ev):

   -44.1507 -44.1507 -22.2901 -22.2901 -22.1991 -22.1991 -22.0718 -22.0718
    -7.3931  -7.3931  -6.7820  -6.7820  -6.0385  -6.0385  -4.8542  -4.8542
    -4.3491  -4.3491   0.7180   0.7180   1.0376   1.0376   1.2889   1.2889
     2.2972   2.2972   2.5522   2.5522   2.6967   2.6967   3.1317   3.1317
     3.5233   3.5233   3.8040   3.8040   4.0275   4.0275   4.2271   4.2271
     5.1693   5.1693   5.7042   5.7042   6.0785   6.0785   6.5524   6.5524
     7.4127   7.4129

          k = 0.0000-0.1290 0.0000 ( 36417 PWs)   bands (ev):

   -44.1511 -44.1511 -22.2921 -22.2920 -22.1891 -22.1891 -22.0731 -22.0730
    -7.6614  -7.1541  -7.0368  -6.7895  -6.5374  -5.3308  -5.1046  -4.9039
    -4.8367  -3.8625   0.4613   0.7358   0.7756   1.0715   1.5200   1.5907
     2.4192   2.4710   2.6425   3.0160   3.0241   3.0366   3.1519   3.4589
     3.5062   3.6187   3.7896   4.0169   4.1232   4.2397   4.2710   4.6289
     5.0957   5.5077   5.6054   5.6444   5.8661   6.0733   6.4252   6.7787
     6.9389   7.2769

          k = 0.0000-0.1290 0.1485 ( 36419 PWs)   bands (ev):

   -44.1511 -44.1511 -22.2921 -22.2920 -22.1891 -22.1891 -22.0730 -22.0730
    -7.6222  -7.3271  -6.9056  -6.7984  -6.4236  -5.6933  -4.9271  -4.8510
    -4.7004  -3.9788   0.5027   0.7738   0.9272   1.0441   1.0795   2.0224
     2.1261   2.4450   2.6006   3.0233   3.0296   3.1165   3.3014   3.3479
     3.6655   3.7135   3.7726   3.9844   4.0727   4.2648   4.2871   4.6439
     4.9042   5.0430   5.7329   5.9274   6.0414   6.0692   6.5858   6.7203
     6.7725   7.2543

          k = 0.0000-0.1290-0.2971 ( 36464 PWs)   bands (ev):

   -44.1511 -44.1511 -22.2921 -22.2921 -22.1891 -22.1891 -22.0730 -22.0730
    -7.5073  -7.5073  -6.8287  -6.8287  -6.1089  -6.1089  -4.8856  -4.8856
    -4.2880  -4.2880   0.6949   0.6949   0.8814   0.8814   1.4449   1.4449
     2.5152   2.5152   2.7032   2.7032   3.0235   3.0235   3.3453   3.3453
     3.8036   3.8036   3.9134   3.9134   4.2356   4.2356   4.4321   4.4321
     4.7152   4.7152   5.9527   5.9527   6.2590   6.2590   6.3814   6.3814
     7.1511   7.1511

          k = 1.0162 0.0000 0.0000 ( 36499 PWs)   bands (ev):

   -44.1485 -44.1485 -22.2784 -22.2784 -22.2571 -22.2571 -22.0645 -22.0645
    -6.6881  -6.6680  -5.7993  -5.7902  -5.7024  -5.6906  -5.5080  -5.5064
    -4.5702  -4.5507   0.0643   0.1112   0.4123   0.4514   1.0043   1.0318
     1.4788   1.6564   2.2362   2.3278   2.3449   2.3666   2.7931   2.8124
     2.8973   2.9040   3.2259   3.2949   3.3000   3.4728   3.5911   3.6482
     3.7841   3.9693   6.3717   6.4187   6.4559   6.5601   6.9668   7.0087
     7.0157   7.0289

          k = 1.0162 0.0000 0.1485 ( 36485 PWs)   bands (ev):

   -44.1485 -44.1485 -22.2784 -22.2784 -22.2571 -22.2571 -22.0645 -22.0645
    -6.6845  -6.6703  -5.8095  -5.8017  -5.7002  -5.6940  -5.4929  -5.4908
    -4.5727  -4.5590  -0.0185  -0.0033   0.6403   0.6491   1.0398   1.0435
     1.4733   1.5746   1.9468   1.9719   2.3582   2.3716   2.6855   2.8234
     2.9755   3.0409   3.0972   3.2186   3.5290   3.6354   3.6719   3.6938
     4.0765   4.1437   5.8514   5.8971   6.3899   6.4730   6.9378   6.9559
     7.2472   7.2506

          k = 1.0162 0.0000-0.2971 ( 36514 PWs)   bands (ev):

   -44.1485 -44.1485 -22.2784 -22.2784 -22.2571 -22.2571 -22.0645 -22.0645
    -6.6767  -6.6767  -5.8157  -5.8157  -5.6976  -5.6976  -5.4774  -5.4774
    -4.5713  -4.5713  -0.0711  -0.0711   0.9071   0.9071   1.0216   1.0216
     1.5554   1.5554   1.5885   1.5885   2.3510   2.3510   2.7563   2.7563
     3.0492   3.0492   3.1208   3.1208   3.6113   3.6113   3.7610   3.7610
     4.5702   4.5702   5.3059   5.3059   6.3592   6.3592   6.9662   6.9662
     7.3072   7.3072

          k = 1.2703 0.0645 0.0000 ( 36468 PWs)   bands (ev):

   -44.1489 -44.1489 -22.2805 -22.2805 -22.2471 -22.2471 -22.0658 -22.0658
    -6.8172  -6.7282  -6.3713  -6.1872  -5.9277  -5.3120  -5.2625  -5.0612
    -4.6364  -4.5811   0.0218   0.2236   0.5943   1.0961   1.1762   1.2033
     1.5036   1.7084   1.9368   2.0075   2.4074   2.4326   2.5316   2.8020
     2.8212   3.1036   3.2848   3.4509   3.5425   3.5524   3.7703   3.8522
     3.8968   4.4402   5.7720   6.1775   6.3384   6.5979   6.7874   6.9567
     7.1395   7.5736

          k = 1.2703 0.0645 0.1485 ( 36490 PWs)   bands (ev):

   -44.1489 -44.1489 -22.2805 -22.2805 -22.2471 -22.2471 -22.0658 -22.0658
    -6.8021  -6.7382  -6.3656  -6.2594  -5.8084  -5.4194  -5.2029  -5.0825
    -4.6229  -4.5852   0.0802   0.3494   0.5006   0.9163   1.1607   1.1749
     1.5875   1.6435   1.7039   2.2654   2.3123   2.6202   2.6984   2.8405
     2.8892   3.1100   3.2059   3.3693   3.4255   3.5789   3.7253   3.8313
     3.8486   4.7088   5.3566   6.3031   6.5037   6.6188   6.7440   6.9722
     7.0276   7.4164

          k = 1.2703 0.0645-0.2971 ( 36480 PWs)   bands (ev):

   -44.1489 -44.1489 -22.2805 -22.2805 -22.2471 -22.2471 -22.0658 -22.0658
    -6.7677  -6.7677  -6.3355  -6.3355  -5.6051  -5.6051  -5.1365  -5.1365
    -4.5996  -4.5996   0.2576   0.2576   0.6932   0.6932   1.0250   1.0250
     1.5845   1.5845   2.0732   2.0732   2.4998   2.4998   2.8278   2.8278
     2.9986   2.9986   3.2228   3.2228   3.5821   3.5821   3.7891   3.7891
     4.1296   4.1296   5.9387   5.9387   6.3684   6.3684   6.9593   6.9593
     7.2299   7.2299

          k =-0.5081-0.3869 0.0000 ( 36463 PWs)   bands (ev):

   -44.1498 -44.1498 -22.2854 -22.2854 -22.2231 -22.2231 -22.0688 -22.0687
    -7.2037  -6.8799  -6.6385  -6.6326  -6.2954  -5.2263  -5.1339  -4.7600
    -4.6821  -4.4206   0.5369   0.6739   0.7134   1.3116   1.4190   1.5963
     1.6495   1.8103   1.9505   2.2047   2.2694   2.3183   2.3643   3.2255
     3.3410   3.3746   3.3845   3.5000   3.6994   3.7789   3.8664   4.0692
     4.5868   5.2804   5.3749   5.7204   6.0542   6.6823   6.7575   6.7947
     7.2316   7.5743

          k =-0.5081-0.3869 0.1485 ( 36477 PWs)   bands (ev):

   -44.1498 -44.1498 -22.2854 -22.2854 -22.2231 -22.2231 -22.0688 -22.0687
    -7.1703  -6.9488  -6.6566  -6.6434  -6.1430  -5.5035  -4.9484  -4.7223
    -4.6866  -4.4474   0.5251   0.7453   0.8384   1.0718   1.4016   1.4354
     1.5904   1.6898   2.0537   2.0753   2.3082   2.6446   2.8611   3.1942
     3.3388   3.3674   3.4066   3.5028   3.6442   3.7030   3.7720   4.1065
     4.2822   4.5786   5.9560   6.0858   6.2090   6.5822   6.7725   6.8156
     7.0888   7.4807

          k =-0.5081-0.3869-0.2971 ( 36492 PWs)   bands (ev):

   -44.1498 -44.1498 -22.2854 -22.2854 -22.2231 -22.2231 -22.0688 -22.0688
    -7.0759  -7.0759  -6.6568  -6.6568  -5.8417  -5.8417  -4.8175  -4.8175
    -4.5419  -4.5419   0.6322   0.6322   1.0868   1.0868   1.1948   1.1948
     1.5629   1.5629   2.0490   2.0490   2.8213   2.8213   3.1978   3.1978
     3.2937   3.2937   3.3795   3.3795   3.6759   3.6759   3.8068   3.8068
     4.1819   4.1819   6.1896   6.1896   6.6394   6.6394   6.7562   6.7562
     7.1056   7.1056

          k =-0.2541-0.3224 0.0000 ( 36485 PWs)   bands (ev):

   -44.1507 -44.1507 -22.2901 -22.2901 -22.1991 -22.1991 -22.0718 -22.0717
    -7.5268  -7.0566  -6.9300  -6.7670  -6.5075  -5.2929  -5.1095  -4.8702
    -4.7829  -4.0029   0.5809   0.9293   1.0283   1.2593   1.4022   1.4675
     1.9851   2.1260   2.2239   2.4145   2.5183   3.2111   3.2601   3.3823
     3.5583   3.6693   3.7388   3.8445   3.9145   4.0785   4.1589   4.1814
     4.3962   4.6107   5.8297   6.0241   6.3692   6.5510   6.6918   6.8750
     6.9385   7.0098

          k =-0.2541-0.3224 0.1485 ( 36445 PWs)   bands (ev):

   -44.1507 -44.1507 -22.2901 -22.2901 -22.1991 -22.1991 -22.0718 -22.0717
    -7.4888  -7.2061  -6.8491  -6.7752  -6.3686  -5.6365  -4.9338  -4.8062
    -4.6908  -4.0937   0.6014   0.9614   1.0450   1.1368   1.2454   1.6333
     1.8707   2.3146   2.4296   2.4838   2.5578   2.8955   3.2979   3.3455
     3.3701   3.5212   3.7395   3.8824   3.9170   4.0678   4.1060   4.1650
     4.6868   4.9745   5.7716   5.8722   6.1786   6.3218   6.6540   6.7234
     7.1622   7.2780

          k =-0.2541-0.3224-0.2971 ( 36442 PWs)   bands (ev):

   -44.1507 -44.1507 -22.2901 -22.2901 -22.1991 -22.1991 -22.0718 -22.0718
    -7.3774  -7.3774  -6.8003  -6.8003  -6.0401  -6.0401  -4.8627  -4.8627
    -4.3449  -4.3449   0.7294   0.7294   1.1677   1.1677   1.3025   1.3025
     2.2924   2.2924   2.4976   2.4976   2.7026   2.7026   3.1850   3.1850
     3.3538   3.3538   3.7930   3.7930   4.0137   4.0137   4.1494   4.1494
     5.1699   5.1699   5.6611   5.6611   6.0517   6.0517   6.6600   6.6600
     7.3788   7.3788

          k = 0.0000-0.2579 0.0000 ( 36445 PWs)   bands (ev):

   -44.1511 -44.1511 -22.2921 -22.2920 -22.1891 -22.1891 -22.0731 -22.0730
    -7.6474  -7.1397  -7.0344  -6.8067  -6.5621  -5.3302  -5.1144  -4.9117
    -4.8262  -3.8641   0.5063   0.7894   0.8512   1.1138   1.5752   1.6152
     2.4273   2.4722   2.6604   3.0139   3.0324   3.0473   3.2524   3.2738
     3.2875   3.5924   3.7148   3.9833   4.1004   4.1231   4.1454   4.6314
     5.0761   5.4430   5.6619   5.6728   5.9010   6.1375   6.5227   6.6990
     6.9403   7.2360

          k = 0.0000-0.2579 0.1485 ( 36452 PWs)   bands (ev):

   -44.1511 -44.1511 -22.2921 -22.2920 -22.1891 -22.1891 -22.0730 -22.0730
    -7.6083  -7.3134  -6.9123  -6.8154  -6.4378  -5.6929  -4.9488  -4.8460
    -4.6924  -3.9788   0.5378   0.8803   0.9763   1.0852   1.1081   2.0444
     2.1608   2.4540   2.6160   3.0138   3.0239   3.1182   3.1999   3.2276
     3.6355   3.6703   3.6915   3.9253   4.0684   4.1425   4.1744   4.6462
     4.8960   5.0247   5.7606   5.9358   6.0702   6.0920   6.5502   6.7746
     6.7875   7.2190

          k = 0.0000-0.2579-0.2971 ( 36454 PWs)   bands (ev):

   -44.1511 -44.1511 -22.2921 -22.2921 -22.1891 -22.1891 -22.0730 -22.0730
    -7.4934  -7.4934  -6.8445  -6.8445  -6.1119  -6.1119  -4.8931  -4.8931
    -4.2847  -4.2847   0.7278   0.7278   0.9703   0.9703   1.4680   1.4680
     2.5266   2.5266   2.7219   2.7219   3.0156   3.0156   3.2021   3.2021
     3.7707   3.7707   3.8997   3.8997   4.0975   4.0975   4.4244   4.4244
     4.7152   4.7152   5.9281   5.9281   6.2998   6.2998   6.3855   6.3855
     7.1402   7.1402

          k = 1.5243 0.0000 0.0000 ( 36439 PWs)   bands (ev):

   -44.1498 -44.1498 -22.2854 -22.2854 -22.2231 -22.2231 -22.0688 -22.0687
    -7.1966  -6.8791  -6.6447  -6.6314  -6.3005  -5.2255  -5.1375  -4.7611
    -4.6799  -4.4210   0.5412   0.6681   0.7075   1.3155   1.5549   1.5559
     1.6258   1.8048   1.9578   2.2272   2.2583   2.3141   2.3800   3.1742
     3.3189   3.3531   3.3983   3.5767   3.6700   3.6881   3.8603   4.0839
     4.5816   5.2711   5.3716   5.6878   6.0814   6.6460   6.8200   6.8368
     7.1849   7.5746

          k = 1.5243 0.0000 0.1485 ( 36476 PWs)   bands (ev):

   -44.1498 -44.1498 -22.2854 -22.2854 -22.2231 -22.2231 -22.0688 -22.0687
    -7.1633  -6.9444  -6.6608  -6.6516  -6.1445  -5.5027  -4.9535  -4.7222
    -4.6851  -4.4466   0.5277   0.7455   0.8327   1.0705   1.4215   1.4865
     1.5762   1.7111   2.0648   2.0763   2.2994   2.6565   2.8734   3.1430
     3.2965   3.3810   3.3921   3.5828   3.6048   3.7024   3.7166   4.1199
     4.2405   4.5780   5.9294   6.0939   6.2080   6.5535   6.8171   6.8790
     7.0401   7.4919

          k = 1.5243 0.0000-0.2971 ( 36508 PWs)   bands (ev):

   -44.1498 -44.1498 -22.2854 -22.2854 -22.2231 -22.2231 -22.0688 -22.0688
    -7.0693  -7.0693  -6.6646  -6.6646  -5.8411  -5.8411  -4.8214  -4.8214
    -4.5395  -4.5395   0.6358   0.6358   1.0856   1.0856   1.1893   1.1893
     1.6102   1.6102   2.0422   2.0422   2.8345   2.8345   3.1588   3.1588
     3.3042   3.3042   3.3834   3.3834   3.6606   3.6606   3.8024   3.8024
     4.1572   4.1572   6.1744   6.1744   6.6341   6.6341   6.7732   6.7732
     7.1156   7.1156

          k =-0.2541-0.4514 0.0000 ( 36444 PWs)   bands (ev):

   -44.1507 -44.1507 -22.2901 -22.2901 -22.1991 -22.1991 -22.0718 -22.0717
    -7.5151  -7.0480  -6.9281  -6.7782  -6.5260  -5.2919  -5.1173  -4.8718
    -4.7786  -4.0039   0.5893   0.9399   1.1408   1.2949   1.4638   1.4912
     2.0237   2.1513   2.2153   2.3226   2.4418   3.1640   3.2547   3.3166
     3.5625   3.6440   3.7430   3.7708   3.9168   4.0341   4.1246   4.1550
     4.4498   4.5339   5.8954   6.0320   6.3890   6.5151   6.7465   6.8672
     6.8936   6.9992

          k =-0.2541-0.4514 0.1485 ( 36461 PWs)   bands (ev):

   -44.1507 -44.1507 -22.2901 -22.2901 -22.1991 -22.1991 -22.0718 -22.0717
    -7.4770  -7.1950  -6.8580  -6.7878  -6.3770  -5.6357  -4.9472  -4.8049
    -4.6851  -4.0935   0.6066   0.9774   1.0569   1.2721   1.3223   1.6546
     1.8869   2.2929   2.3369   2.4584   2.5623   2.8824   3.2399   3.2538
     3.3784   3.5292   3.7677   3.8389   3.8845   3.9942   4.0971   4.1290
     4.7088   4.9414   5.7628   5.8932   6.1879   6.2781   6.7220   6.7461
     7.1328   7.2695

          k =-0.2541-0.4514-0.2971 ( 36490 PWs)   bands (ev):

   -44.1507 -44.1507 -22.2901 -22.2901 -22.1991 -22.1991 -22.0718 -22.0718
    -7.3658  -7.3658  -6.8140  -6.8140  -6.0412  -6.0412  -4.8687  -4.8687
    -4.3420  -4.3420   0.7312   0.7312   1.2827   1.2827   1.3232   1.3232
     2.2738   2.2738   2.4384   2.4384   2.7056   2.7056   3.2066   3.2066
     3.2590   3.2590   3.7907   3.7907   3.9982   3.9982   4.1046   4.1046
     5.1721   5.1721   5.6360   5.6360   6.0267   6.0267   6.7247   6.7247
     7.3571   7.3571

          k = 0.0000-0.3869 0.0000 ( 36477 PWs)   bands (ev):

   -44.1511 -44.1511 -22.2921 -22.2920 -22.1891 -22.1891 -22.0731 -22.0730
    -7.6328  -7.1253  -7.0319  -6.8221  -6.5893  -5.3295  -5.1249  -4.9148
    -4.8197  -3.8657   0.5298   0.8038   1.0094   1.1786   1.6382   1.6407
     2.4357   2.4683   2.6795   2.9950   3.0029   3.0283   3.0390   3.0971
     3.3923   3.5655   3.7334   3.9187   3.9665   4.0099   4.1228   4.6341
     5.0570   5.4069   5.6795   5.7502   5.9382   6.1748   6.5915   6.5967
     6.9415   7.2074

          k = 0.0000-0.3869 0.1485 ( 36452 PWs)   bands (ev):

   -44.1511 -44.1511 -22.2921 -22.2920 -22.1891 -22.1891 -22.0730 -22.0730
    -7.5936  -7.2990  -6.9209  -6.8319  -6.4521  -5.6924  -4.9673  -4.8435
    -4.6850  -3.9788   0.5513   0.9907   1.0186   1.1423   1.2012   2.0698
     2.1910   2.4632   2.6323   2.9202   2.9595   3.0036   3.0180   3.2968
     3.6117   3.6692   3.6718   3.9087   4.0089   4.0585   4.0638   4.6488
     4.8878   5.0166   5.7979   5.9449   6.0878   6.0946   6.5057   6.7768
     6.8301   7.1851

          k = 0.0000-0.3869-0.2971 ( 36454 PWs)   bands (ev):

   -44.1511 -44.1511 -22.2921 -22.2921 -22.1891 -22.1891 -22.0730 -22.0730
    -7.4787  -7.4787  -6.8613  -6.8613  -6.1147  -6.1147  -4.9007  -4.9007
    -4.2813  -4.2813   0.7323   0.7323   1.1171   1.1171   1.4931   1.4931
     2.5386   2.5386   2.6943   2.6943   3.0074   3.0074   3.0318   3.0318
     3.7846   3.7846   3.8858   3.8858   3.9868   3.9868   4.4108   4.4108
     4.7154   4.7154   5.8997   5.8997   6.3257   6.3257   6.3900   6.3900
     7.1146   7.1146

          k =-2.0325 0.0000 0.0000 ( 36452 PWs)   bands (ev):

   -44.1511 -44.1511 -22.2921 -22.2920 -22.1891 -22.1891 -22.0731 -22.0730
    -7.6265  -7.1195  -7.0308  -6.8277  -6.6015  -5.3292  -5.1294  -4.9152
    -4.8177  -3.8663   0.5339   0.8099   1.1198   1.1787   1.6472   1.6820
     2.4392   2.4634   2.6879   2.8500   2.9392   2.9980   3.0266   3.1248
     3.4897   3.5542   3.7562   3.8036   3.9487   3.9559   4.1227   4.6353
     5.0492   5.3966   5.6869   5.7863   5.9557   6.1859   6.5461   6.6138
     6.9420   7.1973

          k =-2.0325 0.0000 0.1485 ( 36456 PWs)   bands (ev):

   -44.1511 -44.1511 -22.2921 -22.2921 -22.1891 -22.1891 -22.0730 -22.0730
    -7.5873  -7.2928  -6.9252  -6.8385  -6.4581  -5.6922  -4.9744  -4.8428
    -4.6822  -3.9788   0.5521   1.0294   1.0296   1.1824   1.2678   2.0808
     2.2031   2.4671   2.6394   2.7975   2.8512   2.9992   3.0155   3.3548
     3.5911   3.6599   3.7010   3.8827   3.9557   4.0141   4.0618   4.6499
     4.8845   5.0151   5.8178   5.9488   6.0772   6.1042   6.4855   6.7777
     6.8417   7.1724

          k =-2.0325 0.0000-0.2971 ( 36460 PWs)   bands (ev):

   -44.1511 -44.1511 -22.2921 -22.2921 -22.1891 -22.1891 -22.0730 -22.0730
    -7.4724  -7.4724  -6.8685  -6.8685  -6.1158  -6.1158  -4.9039  -4.9039
    -4.2799  -4.2799   0.7306   0.7306   1.1951   1.1951   1.5049   1.5049
     2.5436   2.5437   2.6393   2.6393   2.9875   2.9875   3.0038   3.0038
     3.7931   3.7931   3.8800   3.8800   3.9464   3.9464   4.4056   4.4056
     4.7155   4.7155   5.8865   5.8865   6.3335   6.3335   6.3919   6.3919
     7.1021   7.1021

     the Fermi energy is     5.3123 ev

!    total energy              =   -4240.94146107 Ry

     total all-electron energy =   -150287.635156 Ry
     estimated scf accuracy    <          5.4E-11 Ry
     smearing contrib. (-TS)   =      -0.00003018 Ry
     internal energy E=F+TS    =   -4240.94143089 Ry

     The total energy is F=E-TS. E is the sum of the following terms:
     one-electron contribution =    -165.25916134 Ry
     hartree contribution      =     116.10333975 Ry
     xc contribution           =    -201.42792205 Ry
     ewald contribution        =    -222.84724713 Ry
     one-center paw contrib.   =   -3767.51044011 Ry

     convergence has been achieved in  16 iterations

     Forces acting on atoms (cartesian axes, Ry/au):

     atom    1 type  1   force =     0.00000000   -0.01703558    0.00000000
     atom    2 type  1   force =     0.00000000    0.01703558    0.00000000
     atom    3 type  2   force =     0.00000000    0.00071538    0.00000000
     atom    4 type  2   force =     0.00000000   -0.00071538    0.00000000
     atom    5 type  2   force =     0.00000000    0.00365508    0.00036826
     atom    6 type  2   force =     0.00000000   -0.00365508   -0.00036826
     atom    7 type  2   force =     0.00000000    0.00365508   -0.00036826
     atom    8 type  2   force =     0.00000000   -0.00365508    0.00036826
     atom    9 type  2   force =     0.00000000    0.01833676    0.01621211
     atom   10 type  2   force =     0.00000000   -0.01833676   -0.01621211
     atom   11 type  2   force =     0.00000000    0.01833676   -0.01621211
     atom   12 type  2   force =     0.00000000   -0.01833676    0.01621211

     Total force =     0.055061     Total SCF correction =     0.000012


     Computing stress (Cartesian axis) and pressure

          total   stress  (Ry/bohr**3)                   (kbar)     P=       -4.17
  -0.00001858  -0.00000000   0.00000000           -2.73       -0.00        0.00
   0.00000000  -0.00002782   0.00000000            0.00       -4.09        0.00
   0.00000000   0.00000000  -0.00003859            0.00        0.00       -5.68

 
     init_run     :     36.05s CPU     37.32s WALL (       1 calls)
     electrons    :   1671.95s CPU   1689.30s WALL (       1 calls)
     forces       :      7.49s CPU      7.72s WALL (       1 calls)
     stress       :     45.89s CPU     46.55s WALL (       1 calls)

     Called by init_run:
     wfcinit      :     30.91s CPU     31.20s WALL (       1 calls)
     potinit      :      1.57s CPU      1.64s WALL (       1 calls)
     hinit0       :      1.80s CPU      2.43s WALL (       1 calls)

     Called by electrons:
     c_bands      :   1368.73s CPU   1376.07s WALL (      17 calls)
     sum_band     :    271.45s CPU    277.46s WALL (      17 calls)
     v_of_rho     :      8.29s CPU      8.90s WALL (      17 calls)
     newd         :     16.73s CPU     20.33s WALL (      17 calls)
     PAW_pot      :      6.43s CPU      6.44s WALL (      17 calls)
     mix_rho      :      1.49s CPU      1.52s WALL (      17 calls)

     Called by c_bands:
     init_us_2    :     13.31s CPU     13.39s WALL (    2331 calls)
     cegterg      :   1296.11s CPU   1302.70s WALL (    1071 calls)

     Called by *egterg:
     cdiaghg      :     28.06s CPU     28.17s WALL (    7931 calls)
     h_psi        :   1117.32s CPU   1123.65s WALL (    8057 calls)
     s_psi        :     51.34s CPU     51.42s WALL (    8057 calls)
     g_psi        :      2.31s CPU      2.33s WALL (    6923 calls)

     Called by h_psi:
     h_psi:calbec :     43.28s CPU     43.38s WALL (    8057 calls)
     vloc_psi     :   1018.82s CPU   1024.88s WALL (    8057 calls)
     add_vuspsi   :     51.18s CPU     51.28s WALL (    8057 calls)

     General routines
     calbec       :     56.05s CPU     56.20s WALL (    9443 calls)
     fft          :      7.58s CPU      8.25s WALL (     245 calls)
     ffts         :      0.19s CPU      0.19s WALL (      34 calls)
     fftw         :   1001.66s CPU   1007.70s WALL (  415032 calls)
     interpolate  :      0.62s CPU      0.62s WALL (      17 calls)
 
     Parallel routines
     fft_scatt_xy :    275.03s CPU    276.71s WALL (  415311 calls)
     fft_scatt_yz :    168.36s CPU    169.83s WALL (  415311 calls)
 
     PWSCF        :  29m21.69s CPU  29m46.02s WALL

 
   This run was terminated on:  15:16: 8  19Nov2021            

=------------------------------------------------------------------------------=
   JOB DONE.
=------------------------------------------------------------------------------=
