
     Program PWSCF v.6.7MaX starts on 19Nov2021 at 15: 0:52 

     This program is part of the open-source Quantum ESPRESSO suite
     for quantum simulation of materials; please cite
         "P. Giannozzi et al., J. Phys.:Condens. Matter 21 395502 (2009);
         "P. Giannozzi et al., J. Phys.:Condens. Matter 29 465901 (2017);
          URL http://www.quantum-espresso.org", 
     in publications or presentations arising from this work. More details at
     http://www.quantum-espresso.org/quote

     Parallel version (MPI), running on    10 processors

     MPI processes distributed on     1 nodes
     R & G space division:  proc/nbgrp/npool/nimage =      10
     Waiting for input...
     Reading input from standard input

     Current dimensions of program PWSCF are:
     Max number of different atomic species (ntypx) = 10
     Max number of k-points (npk) =  40000
     Max angular momentum in pseudopotentials (lmaxx) =  3
     file Zr.pbe-spn-kjpaw_psl.1.0.0.UPF: wavefunction(s)  4S 4P renormalized
     file Te.pbe-n-kjpaw_psl.1.0.0.UPF: wavefunction(s)  5S 5P renormalized

     Subspace diagonalization in iterative solution of the eigenvalue problem:
     a serial algorithm will be used

     Message from routine setup:
     using ibrav=0 with symmetry is DISCOURAGED, use correct ibrav instead
 
     Parallelization info
     --------------------
     sticks:   dense  smooth     PW     G-vecs:    dense   smooth      PW
     Min         734     293     87               115340    29174    4753
     Max         735     295     88               115345    29176    4760
     Sum        7345    2937    873              1153415   291749   47557
 


     bravais-lattice index     =            0
     lattice parameter (alat)  =      15.5510  a.u.
     unit-cell volume          =    3018.5011 (a.u.)^3
     number of atoms/cell      =           12
     number of atomic types    =            2
     number of electrons       =        84.00
     number of Kohn-Sham states=           50
     kinetic-energy cutoff     =      80.0000  Ry
     charge density cutoff     =     800.0000  Ry
     scf convergence threshold =      1.0E-10
     mixing beta               =       0.7000
     number of iterations used =            8  plain     mixing
     Exchange-correlation= SLA  PW   PBX  PBC
                           (   1   4   3   4   0   0   0)

     celldm(1)=  15.551040  celldm(2)=   0.000000  celldm(3)=   0.000000
     celldm(4)=   0.000000  celldm(5)=   0.000000  celldm(6)=   0.000000

     crystal axes: (cart. coord. in units of alat)
               a(1) = (   0.246007  -0.969268   0.000000 )  
               a(2) = (   0.246007   0.969268   0.000000 )  
               a(3) = (   0.000000   0.000000   1.683031 )  

     reciprocal axes: (cart. coord. in units 2 pi/alat)
               b(1) = (  2.032465 -0.515853  0.000000 )  
               b(2) = (  2.032465  0.515853  0.000000 )  
               b(3) = (  0.000000  0.000000  0.594166 )  


     PseudoPot. # 1 for Zr read from file:
     pseudo/Zr.pbe-spn-kjpaw_psl.1.0.0.UPF
     MD5 check sum: 02112c41713a0468aff2bb39ef194e36
     Pseudo is Projector augmented-wave + core cor, Zval = 12.0
     Generated using &quot;atomic&quot; code by A. Dal Corso  v.6.2.2
     Shape of augmentation charge: PSQ
     Using radial grid of 1225 points,  6 beta functions with: 
                l(1) =   0
                l(2) =   0
                l(3) =   1
                l(4) =   1
                l(5) =   2
                l(6) =   2
     Q(r) pseudized with 0 coefficients 


     PseudoPot. # 2 for Te read from file:
     pseudo/Te.pbe-n-kjpaw_psl.1.0.0.UPF
     MD5 check sum: 66247bff2bd9dbf220fbb0bf5ab56e9d
     Pseudo is Projector augmented-wave + core cor, Zval =  6.0
     Generated using &quot;atomic&quot; code by A. Dal Corso  v.6.3
     Shape of augmentation charge: PSQ
     Using radial grid of 1245 points,  6 beta functions with: 
                l(1) =   0
                l(2) =   0
                l(3) =   1
                l(4) =   1
                l(5) =   2
                l(6) =   2
     Q(r) pseudized with 0 coefficients 


     atomic species   valence    mass     pseudopotential
        Zr            12.00    91.22000     Zr( 1.00)
        Te             6.00   127.60000     Te( 1.00)

      8 Sym. Ops., with inversion, found ( 4 have fractional translation)



   Cartesian axes

     site n.     atom                  positions (alat units)
         1           Zr  tau(   1) = (   0.0000000   0.6140021   0.4207578  )
         2           Zr  tau(   2) = (   0.2460067   0.3552660   1.2622733  )
         3           Te  tau(   3) = (   0.2460067   0.3344171   0.4207578  )
         4           Te  tau(   4) = (   0.0000000   0.6348510   1.2622733  )
         5           Te  tau(   5) = (   0.2460067   0.8060045   0.2494550  )
         6           Te  tau(   6) = (   0.0000000   0.1632636   1.4335761  )
         7           Te  tau(   7) = (   0.2460067   0.8060045   0.5920605  )
         8           Te  tau(   8) = (   0.0000000   0.1632636   1.0909705  )
         9           Te  tau(   9) = (   0.0000000   0.4001858   0.7168518  )
        10           Te  tau(  10) = (   0.2460067   0.5690823   0.9661793  )
        11           Te  tau(  11) = (   0.0000000   0.4001858   0.1246638  )
        12           Te  tau(  12) = (   0.2460067   0.5690823   1.5583673  )

     number of k points=    63  Methfessel-Paxton smearing, width (Ry)=  0.0030
                       cart. coord. in units 2pi/alat
        k(    1) = (   0.0000000   0.0000000   0.0000000), wk =   0.0078125
        k(    2) = (   0.0000000   0.0000000   0.1485415), wk =   0.0156250
        k(    3) = (   0.0000000   0.0000000  -0.2970830), wk =   0.0078125
        k(    4) = (   0.2540581   0.0644816   0.0000000), wk =   0.0312500
        k(    5) = (   0.2540581   0.0644816   0.1485415), wk =   0.0625000
        k(    6) = (   0.2540581   0.0644816  -0.2970830), wk =   0.0312500
        k(    7) = (   0.5081162   0.1289633   0.0000000), wk =   0.0312500
        k(    8) = (   0.5081162   0.1289633   0.1485415), wk =   0.0625000
        k(    9) = (   0.5081162   0.1289633  -0.2970830), wk =   0.0312500
        k(   10) = (   0.7621743   0.1934449   0.0000000), wk =   0.0312500
        k(   11) = (   0.7621743   0.1934449   0.1485415), wk =   0.0625000
        k(   12) = (   0.7621743   0.1934449  -0.2970830), wk =   0.0312500
        k(   13) = (  -1.0162324  -0.2579266   0.0000000), wk =   0.0156250
        k(   14) = (  -1.0162324  -0.2579266   0.1485415), wk =   0.0312500
        k(   15) = (  -1.0162324  -0.2579266  -0.2970830), wk =   0.0156250
        k(   16) = (   0.5081162   0.0000000   0.0000000), wk =   0.0156250
        k(   17) = (   0.5081162   0.0000000   0.1485415), wk =   0.0312500
        k(   18) = (   0.5081162   0.0000000  -0.2970830), wk =   0.0156250
        k(   19) = (   0.7621743   0.0644816   0.0000000), wk =   0.0312500
        k(   20) = (   0.7621743   0.0644816   0.1485415), wk =   0.0625000
        k(   21) = (   0.7621743   0.0644816  -0.2970830), wk =   0.0312500
        k(   22) = (   1.0162324   0.1289633   0.0000000), wk =   0.0312500
        k(   23) = (   1.0162324   0.1289633   0.1485415), wk =   0.0625000
        k(   24) = (   1.0162324   0.1289633  -0.2970830), wk =   0.0312500
        k(   25) = (  -0.7621743  -0.3224082   0.0000000), wk =   0.0312500
        k(   26) = (  -0.7621743  -0.3224082   0.1485415), wk =   0.0625000
        k(   27) = (  -0.7621743  -0.3224082  -0.2970830), wk =   0.0312500
        k(   28) = (  -0.5081162  -0.2579266   0.0000000), wk =   0.0312500
        k(   29) = (  -0.5081162  -0.2579266   0.1485415), wk =   0.0625000
        k(   30) = (  -0.5081162  -0.2579266  -0.2970830), wk =   0.0312500
        k(   31) = (  -0.2540581  -0.1934449   0.0000000), wk =   0.0312500
        k(   32) = (  -0.2540581  -0.1934449   0.1485415), wk =   0.0625000
        k(   33) = (  -0.2540581  -0.1934449  -0.2970830), wk =   0.0312500
        k(   34) = (   0.0000000  -0.1289633   0.0000000), wk =   0.0156250
        k(   35) = (   0.0000000  -0.1289633   0.1485415), wk =   0.0312500
        k(   36) = (   0.0000000  -0.1289633  -0.2970830), wk =   0.0156250
        k(   37) = (   1.0162324   0.0000000   0.0000000), wk =   0.0156250
        k(   38) = (   1.0162324   0.0000000   0.1485415), wk =   0.0312500
        k(   39) = (   1.0162324   0.0000000  -0.2970830), wk =   0.0156250
        k(   40) = (   1.2702905   0.0644816   0.0000000), wk =   0.0312500
        k(   41) = (   1.2702905   0.0644816   0.1485415), wk =   0.0625000
        k(   42) = (   1.2702905   0.0644816  -0.2970830), wk =   0.0312500
        k(   43) = (  -0.5081162  -0.3868899   0.0000000), wk =   0.0312500
        k(   44) = (  -0.5081162  -0.3868899   0.1485415), wk =   0.0625000
        k(   45) = (  -0.5081162  -0.3868899  -0.2970830), wk =   0.0312500
        k(   46) = (  -0.2540581  -0.3224082   0.0000000), wk =   0.0312500
        k(   47) = (  -0.2540581  -0.3224082   0.1485415), wk =   0.0625000
        k(   48) = (  -0.2540581  -0.3224082  -0.2970830), wk =   0.0312500
        k(   49) = (   0.0000000  -0.2579266   0.0000000), wk =   0.0156250
        k(   50) = (   0.0000000  -0.2579266   0.1485415), wk =   0.0312500
        k(   51) = (   0.0000000  -0.2579266  -0.2970830), wk =   0.0156250
        k(   52) = (   1.5243485   0.0000000   0.0000000), wk =   0.0156250
        k(   53) = (   1.5243485   0.0000000   0.1485415), wk =   0.0312500
        k(   54) = (   1.5243485   0.0000000  -0.2970830), wk =   0.0156250
        k(   55) = (  -0.2540581  -0.4513715   0.0000000), wk =   0.0312500
        k(   56) = (  -0.2540581  -0.4513715   0.1485415), wk =   0.0625000
        k(   57) = (  -0.2540581  -0.4513715  -0.2970830), wk =   0.0312500
        k(   58) = (   0.0000000  -0.3868899   0.0000000), wk =   0.0156250
        k(   59) = (   0.0000000  -0.3868899   0.1485415), wk =   0.0312500
        k(   60) = (   0.0000000  -0.3868899  -0.2970830), wk =   0.0156250
        k(   61) = (  -2.0324647   0.0000000   0.0000000), wk =   0.0078125
        k(   62) = (  -2.0324647   0.0000000   0.1485415), wk =   0.0156250
        k(   63) = (  -2.0324647   0.0000000  -0.2970830), wk =   0.0078125

     Dense  grid:  1153415 G-vectors     FFT dimensions: ( 144, 144, 240)

     Smooth grid:   291749 G-vectors     FFT dimensions: (  90,  90, 150)

     Estimated max dynamical RAM per process >     657.19 MB

     Estimated total dynamical RAM >       6.42 GB

     Initial potential from superposition of free atoms

     starting charge   83.99353, renormalised to   84.00000
     Starting wfcs are   66 randomized atomic wfcs
     Checking if some PAW data can be deallocated... 

     total cpu time spent up to now is       37.3 secs

     Self-consistent Calculation

     iteration #  1     ecut=    80.00 Ry     beta= 0.70
     Davidson diagonalization with overlap
     ethr =  1.00E-02,  avg # of iterations =  2.0

     Threshold (ethr) on eigenvalues was too large:
     Diagonalizing with lowered threshold

     Davidson diagonalization with overlap
     ethr =  3.65E-04,  avg # of iterations =  4.1

     total cpu time spent up to now is      199.3 secs

     total energy              =   -4240.70538729 Ry
     estimated scf accuracy    <       0.42354243 Ry

     iteration #  2     ecut=    80.00 Ry     beta= 0.70
     Davidson diagonalization with overlap
     ethr =  5.04E-04,  avg # of iterations =  7.2

     total cpu time spent up to now is      309.5 secs

     total energy              =   -4240.61473635 Ry
     estimated scf accuracy    <       2.17821840 Ry

     iteration #  3     ecut=    80.00 Ry     beta= 0.70
     Davidson diagonalization with overlap
     ethr =  5.04E-04,  avg # of iterations =  5.1

     total cpu time spent up to now is      404.4 secs

     total energy              =   -4240.90225544 Ry
     estimated scf accuracy    <       0.02237342 Ry

     iteration #  4     ecut=    80.00 Ry     beta= 0.70
     Davidson diagonalization with overlap
     c_bands:  2 eigenvalues not converged
     c_bands:  1 eigenvalues not converged
     c_bands:  1 eigenvalues not converged
     c_bands:  1 eigenvalues not converged
     c_bands:  2 eigenvalues not converged
     c_bands:  1 eigenvalues not converged
     c_bands:  1 eigenvalues not converged
     c_bands:  2 eigenvalues not converged
     ethr =  2.66E-05,  avg # of iterations = 15.3

     total cpu time spent up to now is      563.1 secs

     total energy              =   -4240.92206076 Ry
     estimated scf accuracy    <       0.08974877 Ry

     iteration #  5     ecut=    80.00 Ry     beta= 0.70
     Davidson diagonalization with overlap
     ethr =  2.66E-05,  avg # of iterations =  4.5

     total cpu time spent up to now is      645.5 secs

     total energy              =   -4240.92366546 Ry
     estimated scf accuracy    <       0.02203926 Ry

     iteration #  6     ecut=    80.00 Ry     beta= 0.70
     Davidson diagonalization with overlap
     ethr =  2.62E-05,  avg # of iterations =  2.5

     total cpu time spent up to now is      717.8 secs

     total energy              =   -4240.92486820 Ry
     estimated scf accuracy    <       0.00287106 Ry

     iteration #  7     ecut=    80.00 Ry     beta= 0.70
     Davidson diagonalization with overlap
     c_bands:  1 eigenvalues not converged
     c_bands:  1 eigenvalues not converged
     c_bands:  1 eigenvalues not converged
     c_bands:  2 eigenvalues not converged
     c_bands:  1 eigenvalues not converged
     c_bands:  2 eigenvalues not converged
     c_bands:  1 eigenvalues not converged
     c_bands:  2 eigenvalues not converged
     c_bands:  1 eigenvalues not converged
     c_bands:  1 eigenvalues not converged
     c_bands:  1 eigenvalues not converged
     c_bands:  1 eigenvalues not converged
     ethr =  3.42E-06,  avg # of iterations = 13.9

     total cpu time spent up to now is      845.4 secs

     total energy              =   -4240.92653096 Ry
     estimated scf accuracy    <       0.00269927 Ry

     iteration #  8     ecut=    80.00 Ry     beta= 0.70
     Davidson diagonalization with overlap
     c_bands:  1 eigenvalues not converged
     ethr =  3.21E-06,  avg # of iterations =  2.8

     total cpu time spent up to now is      914.8 secs

     total energy              =   -4240.92652989 Ry
     estimated scf accuracy    <       0.00060113 Ry

     iteration #  9     ecut=    80.00 Ry     beta= 0.70
     Davidson diagonalization with overlap
     c_bands:  1 eigenvalues not converged
     ethr =  7.16E-07,  avg # of iterations =  6.2

     total cpu time spent up to now is      999.3 secs

     total energy              =   -4240.92665802 Ry
     estimated scf accuracy    <       0.00000404 Ry

     iteration # 10     ecut=    80.00 Ry     beta= 0.70
     Davidson diagonalization with overlap
     c_bands:  1 eigenvalues not converged
     c_bands:  1 eigenvalues not converged
     c_bands:  1 eigenvalues not converged
     ethr =  4.81E-09,  avg # of iterations = 12.2

     total cpu time spent up to now is     1152.0 secs

     total energy              =   -4240.92667673 Ry
     estimated scf accuracy    <       0.00001782 Ry

     iteration # 11     ecut=    80.00 Ry     beta= 0.70
     Davidson diagonalization with overlap
     ethr =  4.81E-09,  avg # of iterations =  5.3

     total cpu time spent up to now is     1243.1 secs

     total energy              =   -4240.92667927 Ry
     estimated scf accuracy    <       0.00000008 Ry

     iteration # 12     ecut=    80.00 Ry     beta= 0.70
     Davidson diagonalization with overlap
     ethr =  9.08E-11,  avg # of iterations =  9.0

     total cpu time spent up to now is     1366.4 secs

     total energy              =   -4240.92667936 Ry
     estimated scf accuracy    <       0.00000012 Ry

     iteration # 13     ecut=    80.00 Ry     beta= 0.70
     Davidson diagonalization with overlap
     ethr =  9.08E-11,  avg # of iterations =  2.8

     total cpu time spent up to now is     1442.4 secs

     total energy              =   -4240.92667938 Ry
     estimated scf accuracy    <          1.9E-09 Ry

     iteration # 14     ecut=    80.00 Ry     beta= 0.70
     Davidson diagonalization with overlap
     ethr =  2.27E-12,  avg # of iterations =  9.9

     total cpu time spent up to now is     1576.8 secs

     total energy              =   -4240.92667938 Ry
     estimated scf accuracy    <          4.6E-09 Ry

     iteration # 15     ecut=    80.00 Ry     beta= 0.70
     Davidson diagonalization with overlap
     ethr =  2.27E-12,  avg # of iterations =  2.7

     total cpu time spent up to now is     1651.6 secs

     total energy              =   -4240.92667938 Ry
     estimated scf accuracy    <          4.6E-10 Ry

     iteration # 16     ecut=    80.00 Ry     beta= 0.70
     Davidson diagonalization with overlap
     ethr =  5.49E-13,  avg # of iterations =  6.2

     total cpu time spent up to now is     1752.6 secs

     total energy              =   -4240.92667938 Ry
     estimated scf accuracy    <          2.3E-10 Ry

     iteration # 17     ecut=    80.00 Ry     beta= 0.70
     Davidson diagonalization with overlap
     ethr =  2.74E-13,  avg # of iterations =  1.3

     total cpu time spent up to now is     1818.8 secs

     total energy              =   -4240.92667938 Ry
     estimated scf accuracy    <          1.1E-10 Ry

     iteration # 18     ecut=    80.00 Ry     beta= 0.70
     Davidson diagonalization with overlap
     ethr =  1.26E-13,  avg # of iterations =  1.9

     total cpu time spent up to now is     1879.7 secs

     End of self-consistent calculation

          k = 0.0000 0.0000 0.0000 ( 36359 PWs)   bands (ev):

   -44.1670 -44.1669 -22.3161 -22.3161 -22.2072 -22.2072 -22.0865 -22.0864
    -7.6258  -7.2079  -6.7871  -6.7642  -6.6648  -5.2361  -5.1828  -4.9375
    -4.8786  -3.8659   0.4847   0.6393   0.8093   1.0280   1.4658   1.6418
     2.3972   2.5483   2.5656   2.9892   3.0331   3.0728   3.2567   3.4771
     3.5132   3.5143   3.8601   4.0345   4.0388   4.2672   4.3096   4.6167
     5.3077   5.5209   5.5270   5.5526   5.8800   6.0934   6.4726   6.7476
     6.9287   7.3204

          k = 0.0000 0.0000 0.1485 ( 36415 PWs)   bands (ev):

   -44.1670 -44.1670 -22.3161 -22.3161 -22.2072 -22.2072 -22.0864 -22.0864
    -7.5878  -7.3166  -6.7897  -6.7691  -6.4800  -5.6754  -4.9644  -4.8921
    -4.7035  -3.9804   0.5149   0.6776   0.9017   1.0632   1.0753   2.0847
     2.1387   2.4173   2.5242   3.0428   3.0813   3.1856   3.2696   3.3468
     3.6480   3.6820   3.8115   3.9976   4.0203   4.2864   4.3205   4.6413
     4.9989   5.0736   5.6688   5.9122   6.0788   6.1152   6.5598   6.7390
     6.7721   7.3057

          k = 0.0000 0.0000-0.2971 ( 36410 PWs)   bands (ev):

   -44.1670 -44.1670 -22.3161 -22.3161 -22.2072 -22.2072 -22.0864 -22.0864
    -7.4778  -7.4778  -6.7804  -6.7804  -6.1132  -6.1132  -4.9253  -4.9253
    -4.2871  -4.2871   0.6759   0.6759   0.8240   0.8240   1.5048   1.5048
     2.4687   2.4687   2.7091   2.7091   3.1138   3.1138   3.2962   3.2962
     3.8043   3.8043   3.8579   3.8579   4.3056   4.3056   4.4367   4.4367
     4.7473   4.7473   5.9507   5.9507   6.2752   6.2752   6.3877   6.3877
     7.2026   7.2026

          k = 0.2541 0.0645 0.0000 ( 36396 PWs)   bands (ev):

   -44.1666 -44.1666 -22.3142 -22.3142 -22.2174 -22.2174 -22.0851 -22.0851
    -7.5121  -7.1157  -6.7193  -6.6893  -6.6101  -5.2101  -5.1604  -4.8977
    -4.8380  -4.0003   0.5726   0.7776   0.9483   1.1446   1.2240   1.5452
     1.9533   2.1854   2.2272   2.5046   2.6003   2.9438   3.5382   3.5992
     3.6314   3.6832   3.7015   3.8484   4.0764   4.0830   4.1812   4.2832
     4.4548   4.7767   5.6273   6.0150   6.3291   6.5375   6.6001   6.8180
     7.0077   7.1497

          k = 0.2541 0.0645 0.1485 ( 36423 PWs)   bands (ev):

   -44.1666 -44.1666 -22.3142 -22.3142 -22.2174 -22.2174 -22.0851 -22.0851
    -7.4751  -7.2146  -6.7311  -6.7226  -6.3998  -5.6198  -4.9410  -4.8537
    -4.7051  -4.0921   0.5908   0.8184   0.9696   1.0080   1.1373   1.6437
     1.8893   2.2601   2.5156   2.5754   2.6043   2.8994   3.2316   3.3099
     3.5980   3.7008   3.7798   3.8639   3.9761   4.0686   4.2105   4.2685
     4.7166   5.1165   5.7569   5.8154   6.2293   6.2850   6.4996   6.6495
     7.2596   7.2825

          k = 0.2541 0.0645-0.2971 ( 36436 PWs)   bands (ev):

   -44.1666 -44.1666 -22.3142 -22.3142 -22.2174 -22.2174 -22.0851 -22.0851
    -7.3684  -7.3684  -6.7321  -6.7321  -6.0389  -6.0389  -4.8923  -4.8923
    -4.3468  -4.3468   0.7125   0.7125   0.9239   0.9239   1.3434   1.3434
     2.2434   2.2434   2.6277   2.6277   2.7720   2.7720   3.0701   3.0701
     3.5629   3.5629   3.8272   3.8272   3.9854   3.9854   4.2625   4.2625
     5.2535   5.2535   5.7329   5.7329   6.0414   6.0414   6.4947   6.4947
     7.4221   7.4221

          k = 0.5081 0.1290 0.0000 ( 36499 PWs)   bands (ev):

   -44.1656 -44.1656 -22.3095 -22.3095 -22.2418 -22.2418 -22.0820 -22.0819
    -7.1959  -6.8957  -6.5907  -6.4266  -6.4104  -5.1806  -5.1427  -4.7925
    -4.7381  -4.4079   0.4624   0.7569   0.8366   1.1510   1.3517   1.4771
     1.6429   1.7766   1.9586   2.1734   2.2032   2.2537   2.6142   3.1496
     3.2939   3.3838   3.4234   3.5395   3.7678   3.8209   4.0125   4.1493
     4.7567   5.3047   5.4257   5.7877   5.8691   6.5139   6.5294   6.7961
     7.3381   7.5438

          k = 0.5081 0.1290 0.1485 ( 36476 PWs)   bands (ev):

   -44.1656 -44.1656 -22.3095 -22.3095 -22.2418 -22.2418 -22.0820 -22.0819
    -7.1633  -6.9551  -6.5930  -6.5542  -6.1632  -5.4890  -4.9414  -4.7671
    -4.7109  -4.4408   0.4901   0.7705   0.9553   1.0984   1.1910   1.4179
     1.4647   1.6895   2.0420   2.0588   2.3388   2.5927   2.9043   3.1915
     3.2790   3.3822   3.4574   3.5601   3.6069   3.8193   3.8510   4.2089
     4.4528   4.6356   5.9592   6.0266   6.2201   6.5291   6.5695   6.6900
     7.1911   7.4757

          k = 0.5081 0.1290-0.2971 ( 36466 PWs)   bands (ev):

   -44.1656 -44.1656 -22.3095 -22.3095 -22.2418 -22.2418 -22.0820 -22.0820
    -7.0723  -7.0723  -6.5907  -6.5907  -5.8386  -5.8386  -4.8377  -4.8377
    -4.5480  -4.5480   0.6227   0.6227   1.1076   1.1076   1.2713   1.2713
     1.3620   1.3620   2.0591   2.0591   2.8136   2.8136   3.0743   3.0743
     3.2886   3.2886   3.5313   3.5313   3.7200   3.7200   3.8787   3.8787
     4.3009   4.3009   6.1813   6.1813   6.5234   6.5234   6.7521   6.7521
     7.0854   7.0854

          k = 0.7622 0.1934 0.0000 ( 36521 PWs)   bands (ev):

   -44.1647 -44.1647 -22.3046 -22.3046 -22.2663 -22.2663 -22.0788 -22.0788
    -6.8182  -6.7109  -6.3236  -6.0649  -6.0008  -5.2811  -5.2515  -5.0384
    -4.6718  -4.6368  -0.0063   0.3478   0.6677   1.1738   1.1825   1.2175
     1.4771   1.5812   1.8954   1.9401   2.2486   2.4784   2.5610   2.6990
     2.7316   3.2450   3.2636   3.3104   3.6420   3.6503   3.7799   3.9110
     4.0441   4.5783   5.7347   6.1177   6.1943   6.5973   6.6715   6.7570
     7.1601   7.6473

          k = 0.7622 0.1934 0.1485 ( 36503 PWs)   bands (ev):

   -44.1647 -44.1647 -22.3046 -22.3046 -22.2663 -22.2663 -22.0788 -22.0788
    -6.8017  -6.7249  -6.3160  -6.1926  -5.8227  -5.4036  -5.1816  -5.0605
    -4.6599  -4.6365   0.0781   0.4435   0.5618   0.9650   1.1726   1.2139
     1.4929   1.6162   1.7402   2.0931   2.1264   2.6395   2.6539   2.8043
     2.8571   3.1830   3.2744   3.3549   3.4404   3.6645   3.7052   3.8624
     4.0291   4.8656   5.2715   6.1890   6.4942   6.5235   6.6662   6.8717
     6.9371   7.4096

          k = 0.7622 0.1934-0.2971 ( 36522 PWs)   bands (ev):

   -44.1647 -44.1647 -22.3046 -22.3046 -22.2663 -22.2663 -22.0788 -22.0788
    -6.7621  -6.7621  -6.2810  -6.2810  -5.6005  -5.6005  -5.1149  -5.1149
    -4.6425  -4.6425   0.2950   0.2950   0.7408   0.7408   1.0589   1.0589
     1.5722   1.5722   1.9512   1.9512   2.3827   2.3827   2.7982   2.7982
     2.9866   2.9866   3.4377   3.4377   3.5541   3.5541   3.7617   3.7617
     4.2450   4.2450   5.9275   5.9275   6.3340   6.3340   6.7504   6.7504
     7.2547   7.2547

          k =-1.0162-0.2579 0.0000 ( 36506 PWs)   bands (ev):

   -44.1643 -44.1643 -22.3024 -22.3024 -22.2766 -22.2766 -22.0775 -22.0775
    -6.6751  -6.6548  -5.7692  -5.7628  -5.5972  -5.5928  -5.5727  -5.5567
    -4.6129  -4.5985   0.1081   0.1364   0.4652   0.4819   1.0115   1.0178
     1.4712   1.6767   2.2097   2.3070   2.3096   2.3142   2.8089   2.8455
     2.8548   2.9923   3.2522   3.2642   3.3160   3.4881   3.5769   3.6922
     3.8680   3.8987   6.2954   6.3309   6.3980   6.4847   6.8952   6.9399
     6.9540   6.9599

          k =-1.0162-0.2579 0.1485 ( 36506 PWs)   bands (ev):

   -44.1643 -44.1643 -22.3024 -22.3024 -22.2766 -22.2766 -22.0775 -22.0775
    -6.6715  -6.6572  -5.7604  -5.7550  -5.6654  -5.6605  -5.5035  -5.4949
    -4.6183  -4.6082   0.0293   0.0392   0.6660   0.6683   1.0433   1.0718
     1.4591   1.5574   1.9215   1.9689   2.3445   2.3532   2.7697   2.7887
     2.9444   2.9647   3.2124   3.2502   3.5038   3.5538   3.6960   3.7383
     4.1430   4.1664   5.8135   5.8174   6.3365   6.4058   6.7916   6.8333
     7.1827   7.1995

          k =-1.0162-0.2579-0.2971 ( 36528 PWs)   bands (ev):

   -44.1643 -44.1643 -22.3024 -22.3024 -22.2766 -22.2766 -22.0775 -22.0775
    -6.6638  -6.6638  -5.7389  -5.7389  -5.7095  -5.7095  -5.4654  -5.4654
    -4.6210  -4.6210  -0.0212  -0.0212   0.8726   0.8726   1.1310   1.1310
     1.4288   1.4288   1.6467   1.6467   2.3486   2.3486   2.7994   2.7994
     2.9230   2.9230   3.2524   3.2524   3.5534   3.5534   3.7607   3.7607
     4.7372   4.7372   5.1478   5.1478   6.3090   6.3090   6.8219   6.8219
     7.2394   7.2394

          k = 0.5081 0.0000 0.0000 ( 36503 PWs)   bands (ev):

   -44.1656 -44.1656 -22.3095 -22.3095 -22.2418 -22.2418 -22.0820 -22.0819
    -7.2025  -6.8993  -6.5823  -6.4211  -6.4119  -5.1817  -5.1387  -4.7893
    -4.7424  -4.4075   0.4600   0.7553   0.8437   1.1163   1.3474   1.4570
     1.6499   1.7795   1.9693   2.1373   2.2107   2.2226   2.6238   3.1301
     3.2956   3.3811   3.4776   3.5717   3.7756   3.8064   4.0454   4.1875
     4.7591   5.3108   5.4335   5.8165   5.8500   6.4745   6.4780   6.8313
     7.3697   7.5513

          k = 0.5081 0.0000 0.1485 ( 36453 PWs)   bands (ev):

   -44.1656 -44.1656 -22.3095 -22.3095 -22.2418 -22.2418 -22.0820 -22.0819
    -7.1699  -6.9603  -6.5842  -6.5482  -6.1639  -5.4901  -4.9344  -4.7685
    -4.7125  -4.4415   0.4872   0.7654   0.9620   1.1004   1.1597   1.4036
     1.4581   1.6888   2.0398   2.0555   2.3330   2.5682   2.8955   3.1781
     3.2720   3.4117   3.4871   3.5893   3.5984   3.8515   3.8550   4.2433
     4.4688   4.6396   5.9640   6.0426   6.2215   6.4777   6.5353   6.7196
     7.2181   7.4782

          k = 0.5081 0.0000-0.2971 ( 36452 PWs)   bands (ev):

   -44.1656 -44.1656 -22.3095 -22.3095 -22.2418 -22.2418 -22.0820 -22.0820
    -7.0786  -7.0786  -6.5825  -6.5825  -5.8401  -5.8401  -4.8334  -4.8334
    -4.5506  -4.5506   0.6178   0.6178   1.1087   1.1087   1.2709   1.2709
     1.3393   1.3393   2.0578   2.0578   2.8039   2.8039   3.0477   3.0477
     3.2817   3.2817   3.5964   3.5964   3.7225   3.7225   3.8821   3.8821
     4.3272   4.3272   6.1963   6.1963   6.4904   6.4904   6.7650   6.7650
     7.0876   7.0876

          k = 0.7622 0.0645 0.0000 ( 36505 PWs)   bands (ev):

   -44.1647 -44.1647 -22.3046 -22.3046 -22.2663 -22.2663 -22.0788 -22.0788
    -6.8279  -6.7096  -6.3138  -6.0637  -6.0041  -5.2815  -5.2456  -5.0382
    -4.6671  -4.6429  -0.0131   0.3598   0.6949   1.1641   1.2193   1.2315
     1.4310   1.5363   1.8707   1.9485   2.1895   2.4650   2.5480   2.6836
     2.6960   3.2942   3.3107   3.3136   3.5877   3.6704   3.8389   3.9388
     4.0622   4.6238   5.7337   6.1298   6.1574   6.5611   6.7125   6.7288
     7.1873   7.6483

          k = 0.7622 0.0645 0.1485 ( 36509 PWs)   bands (ev):

   -44.1647 -44.1647 -22.3046 -22.3046 -22.2663 -22.2663 -22.0788 -22.0788
    -6.8103  -6.7259  -6.3066  -6.1896  -5.8256  -5.4043  -5.1768  -5.0595
    -4.6568  -4.6409   0.0739   0.4518   0.5712   0.9911   1.1912   1.2060
     1.4516   1.6245   1.7462   2.0343   2.0444   2.6328   2.6549   2.7722
     2.8524   3.1816   3.3456   3.3774   3.4016   3.6848   3.7403   3.8799
     4.0794   4.8648   5.2994   6.1761   6.4925   6.5030   6.6835   6.8727
     6.9228   7.4277

          k = 0.7622 0.0645-0.2971 ( 36472 PWs)   bands (ev):

   -44.1647 -44.1647 -22.3046 -22.3046 -22.2663 -22.2663 -22.0788 -22.0788
    -6.7676  -6.7676  -6.2739  -6.2739  -5.6029  -5.6029  -5.1118  -5.1118
    -4.6430  -4.6430   0.2966   0.2966   0.7380   0.7380   1.0857   1.0857
     1.5689   1.5689   1.8944   1.8944   2.3489   2.3489   2.7853   2.7853
     2.9873   2.9873   3.5062   3.5062   3.5538   3.5538   3.7573   3.7573
     4.2698   4.2698   5.9508   5.9508   6.3352   6.3352   6.7153   6.7153
     7.2804   7.2804

          k = 1.0162 0.1290 0.0000 ( 36514 PWs)   bands (ev):

   -44.1643 -44.1643 -22.3024 -22.3024 -22.2766 -22.2766 -22.0775 -22.0775
    -6.6751  -6.6548  -5.7686  -5.7634  -5.5981  -5.5920  -5.5727  -5.5567
    -4.6129  -4.5985   0.1024   0.1421   0.4587   0.4886   1.0065   1.0249
     1.4760   1.6680   2.2148   2.2879   2.3063   2.3182   2.8130   2.8472
     2.8822   2.9855   3.2173   3.2911   3.3244   3.4907   3.5586   3.6975
     3.8787   3.8854   6.2964   6.3316   6.3933   6.4897   6.9021   6.9432
     6.9518   6.9622

          k = 1.0162 0.1290 0.1485 ( 36524 PWs)   bands (ev):

   -44.1643 -44.1643 -22.3024 -22.3024 -22.2766 -22.2766 -22.0775 -22.0775
    -6.6715  -6.6572  -5.7598  -5.7555  -5.6661  -5.6599  -5.5037  -5.4947
    -4.6183  -4.6082   0.0274   0.0408   0.6631   0.6718   1.0478   1.0688
     1.4628   1.5565   1.9170   1.9670   2.3361   2.3490   2.7306   2.8381
     2.9634   2.9757   3.1863   3.2529   3.5040   3.5813   3.6878   3.7101
     4.1491   4.1659   5.8008   5.8320   6.3340   6.4082   6.7983   6.8328
     7.1852   7.1970

          k = 1.0162 0.1290-0.2971 ( 36516 PWs)   bands (ev):

   -44.1643 -44.1643 -22.3024 -22.3024 -22.2766 -22.2766 -22.0775 -22.0775
    -6.6638  -6.6638  -5.7389  -5.7389  -5.7095  -5.7095  -5.4654  -5.4654
    -4.6210  -4.6210  -0.0213  -0.0213   0.8720   0.8720   1.1344   1.1344
     1.4271   1.4271   1.6474   1.6474   2.3381   2.3381   2.7818   2.7818
     2.9694   2.9694   3.2331   3.2331   3.5609   3.5609   3.7512   3.7512
     4.7374   4.7374   5.1495   5.1495   6.3088   6.3088   6.8246   6.8246
     7.2391   7.2391

          k =-0.7622-0.3224 0.0000 ( 36511 PWs)   bands (ev):

   -44.1647 -44.1647 -22.3046 -22.3046 -22.2663 -22.2663 -22.0788 -22.0788
    -6.8027  -6.7143  -6.3375  -6.0669  -5.9961  -5.2805  -5.2600  -5.0386
    -4.6758  -4.6307   0.0036   0.3313   0.6319   1.1579   1.1871   1.1974
     1.4983   1.6541   1.9303   1.9416   2.3392   2.4950   2.5820   2.7224
     2.7715   3.1505   3.2265   3.3434   3.6057   3.6515   3.7431   3.8711
     4.0158   4.5064   5.7367   6.1183   6.2352   6.5905   6.6524   6.8247
     7.1170   7.6531

          k =-0.7622-0.3224 0.1485 ( 36492 PWs)   bands (ev):

   -44.1647 -44.1647 -22.3046 -22.3046 -22.2663 -22.2663 -22.0788 -22.0788
    -6.7879  -6.7246  -6.3294  -6.1971  -5.8187  -5.4027  -5.1883  -5.0619
    -4.6626  -4.6321   0.0837   0.4334   0.5466   0.9375   1.1527   1.2214
     1.5528   1.6054   1.7233   2.1876   2.2409   2.6465   2.6604   2.8348
     2.8656   3.1728   3.2085   3.3361   3.4710   3.6204   3.6704   3.8307
     3.9465   4.8655   5.2340   6.2103   6.4787   6.5434   6.6616   6.8895
     6.9529   7.3791

          k =-0.7622-0.3224-0.2971 ( 36508 PWs)   bands (ev):

   -44.1647 -44.1647 -22.3046 -22.3046 -22.2663 -22.2663 -22.0788 -22.0788
    -6.7540  -6.7540  -6.2914  -6.2914  -5.5972  -5.5972  -5.1193  -5.1193
    -4.6418  -4.6418   0.2922   0.2922   0.7447   0.7447   1.0286   1.0286
     1.5745   1.5745   2.0208   2.0208   2.4440   2.4440   2.8212   2.8212
     2.9839   2.9839   3.3444   3.3444   3.5586   3.5586   3.7486   3.7486
     4.2104   4.2104   5.8964   5.8964   6.3305   6.3305   6.8107   6.8107
     7.2110   7.2110

          k =-0.5081-0.2579 0.0000 ( 36480 PWs)   bands (ev):

   -44.1656 -44.1656 -22.3095 -22.3095 -22.2418 -22.2418 -22.0820 -22.0819
    -7.1788  -6.8878  -6.6105  -6.4410  -6.4066  -5.1781  -5.1524  -4.7975
    -4.7304  -4.4088   0.4694   0.7546   0.8203   1.2495   1.3608   1.5300
     1.6320   1.7707   1.9394   2.2184   2.2367   2.2947   2.5951   3.2030
     3.2955   3.3001   3.3955   3.4357   3.7381   3.8299   3.9654   4.0717
     4.7486   5.2927   5.3963   5.7251   5.9180   6.6110   6.6494   6.7118
     7.2605   7.5583

          k =-0.5081-0.2579 0.1485 ( 36485 PWs)   bands (ev):

   -44.1656 -44.1656 -22.3095 -22.3095 -22.2418 -22.2418 -22.0820 -22.0819
    -7.1464  -6.9423  -6.6139  -6.5706  -6.1612  -5.4864  -4.9572  -4.7652
    -4.7064  -4.4390   0.4978   0.7779   0.9403   1.0939   1.2784   1.4317
     1.5080   1.6857   2.0497   2.0685   2.3497   2.6498   2.9232   3.2264
     3.2753   3.2960   3.4339   3.4577   3.6147   3.7831   3.8294   4.1349
     4.4063   4.6263   5.9301   6.0061   6.2175   6.6169   6.6470   6.6630
     7.1238   7.4732

          k =-0.5081-0.2579-0.2971 ( 36478 PWs)   bands (ev):

   -44.1656 -44.1656 -22.3095 -22.3095 -22.2418 -22.2418 -22.0820 -22.0820
    -7.0561  -7.0561  -6.6116  -6.6116  -5.8351  -5.8351  -4.8480  -4.8480
    -4.5420  -4.5420   0.6339   0.6339   1.1037   1.1037   1.2681   1.2681
     1.4293   1.4293   2.0617   2.0617   2.8380   2.8380   3.1449   3.1449
     3.3042   3.3042   3.3771   3.3771   3.7056   3.7056   3.8701   3.8701
     4.2348   4.2348   6.1430   6.1430   6.5932   6.5932   6.7306   6.7306
     7.0837   7.0837

          k =-0.2541-0.1934 0.0000 ( 36410 PWs)   bands (ev):

   -44.1666 -44.1666 -22.3142 -22.3142 -22.2174 -22.2174 -22.0851 -22.0851
    -7.4999  -7.1032  -6.7365  -6.6866  -6.6279  -5.2080  -5.1679  -4.9044
    -4.8299  -4.0013   0.6065   0.8537   0.9582   1.1667   1.2551   1.5468
     1.9731   2.1921   2.2451   2.4670   2.5751   3.0151   3.4065   3.4898
     3.5611   3.6838   3.7556   3.8529   4.0270   4.0764   4.1546   4.2505
     4.3966   4.7423   5.6734   6.0269   6.3604   6.5585   6.6002   6.8422
     7.0064   7.0771

          k =-0.2541-0.1934 0.1485 ( 36427 PWs)   bands (ev):

   -44.1666 -44.1666 -22.3142 -22.3142 -22.2174 -22.2174 -22.0851 -22.0851
    -7.4628  -7.2018  -6.7496  -6.7353  -6.4015  -5.6177  -4.9584  -4.8501
    -4.6986  -4.0918   0.6180   0.8814   1.0019   1.0488   1.1473   1.6609
     1.8891   2.2636   2.4861   2.5596   2.6234   2.9146   3.2276   3.3236
     3.4640   3.6144   3.7637   3.8735   3.9624   4.0545   4.1524   4.2187
     4.6941   5.0937   5.7639   5.8051   6.1941   6.3168   6.5847   6.6729
     7.2360   7.2549

          k =-0.2541-0.1934-0.2971 ( 36422 PWs)   bands (ev):

   -44.1666 -44.1666 -22.3142 -22.3142 -22.2174 -22.2174 -22.0851 -22.0851
    -7.3559  -7.3559  -6.7491  -6.7491  -6.0371  -6.0371  -4.8991  -4.8991
    -4.3435  -4.3435   0.7318   0.7318   0.9901   0.9901   1.3532   1.3532
     2.2418   2.2418   2.5894   2.5894   2.7907   2.7907   3.1016   3.1016
     3.4634   3.4634   3.7997   3.7997   3.9804   3.9804   4.2053   4.2053
     5.2395   5.2395   5.6977   5.6977   6.0271   6.0271   6.5838   6.5838
     7.4021   7.4023

          k = 0.0000-0.1290 0.0000 ( 36417 PWs)   bands (ev):

   -44.1670 -44.1670 -22.3161 -22.3161 -22.2072 -22.2072 -22.0865 -22.0864
    -7.6194  -7.2005  -6.7857  -6.7739  -6.6751  -5.2351  -5.1866  -4.9425
    -4.8731  -3.8665   0.5132   0.6820   0.8154   1.0298   1.4892   1.6517
     2.4013   2.5553   2.5636   2.9971   3.0667   3.0726   3.2542   3.4079
     3.4424   3.5039   3.8121   4.0211   4.0388   4.2141   4.2610   4.6188
     5.3011   5.5028   5.5340   5.5468   5.8914   6.1330   6.5244   6.7143
     6.9298   7.4562

          k = 0.0000-0.1290 0.1485 ( 36419 PWs)   bands (ev):

   -44.1670 -44.1670 -22.3161 -22.3161 -22.2072 -22.2072 -22.0864 -22.0864
    -7.5813  -7.3095  -6.7980  -6.7771  -6.4820  -5.6744  -4.9748  -4.8894
    -4.7000  -3.9804   0.5390   0.7202   0.9171   1.0653   1.0892   2.0935
     2.1534   2.4217   2.5307   3.0679   3.0753   3.1808   3.2221   3.2981
     3.6404   3.6820   3.7560   3.9778   3.9963   4.2403   4.2760   4.6434
     4.9984   5.0582   5.6747   5.9140   6.0879   6.1198   6.5496   6.7732
     6.7849   7.4320

          k = 0.0000-0.1290-0.2971 ( 36464 PWs)   bands (ev):

   -44.1670 -44.1670 -22.3161 -22.3161 -22.2072 -22.2072 -22.0864 -22.0864
    -7.4711  -7.4711  -6.7896  -6.7896  -6.1125  -6.1125  -4.9288  -4.9288
    -4.2855  -4.2855   0.7107   0.7107   0.8343   0.8343   1.5150   1.5150
     2.4741   2.4741   2.7197   2.7197   3.1081   3.1081   3.2501   3.2501
     3.7848   3.7848   3.8535   3.8535   4.2255   4.2255   4.4471   4.4471
     4.7487   4.7487   5.9317   5.9317   6.2972   6.2972   6.3889   6.3889
     7.2112   7.2112

          k = 1.0162 0.0000 0.0000 ( 36499 PWs)   bands (ev):

   -44.1643 -44.1643 -22.3024 -22.3024 -22.2766 -22.2766 -22.0775 -22.0775
    -6.6751  -6.6548  -5.7678  -5.7642  -5.5987  -5.5913  -5.5727  -5.5567
    -4.6129  -4.5985   0.0981   0.1466   0.4543   0.4931   1.0043   1.0293
     1.4815   1.6587   2.2227   2.2673   2.3045   2.3207   2.8206   2.8361
     2.9266   2.9710   3.2009   3.2973   3.3351   3.4878   3.5445   3.7060
     3.8700   3.8884   6.2973   6.3323   6.3889   6.4944   6.9099   6.9465
     6.9486   6.9645

          k = 1.0162 0.0000 0.1485 ( 36485 PWs)   bands (ev):

   -44.1643 -44.1643 -22.3024 -22.3024 -22.2766 -22.2766 -22.0775 -22.0775
    -6.6715  -6.6572  -5.7590  -5.7563  -5.6666  -5.6594  -5.5039  -5.4946
    -4.6183  -4.6082   0.0258   0.0419   0.6618   0.6738   1.0553   1.0626
     1.4669   1.5552   1.9122   1.9655   2.3293   2.3441   2.7161   2.8553
     2.9709   3.0178   3.1493   3.2540   3.5056   3.6371   3.6524   3.6796
     4.1553   4.1650   5.7954   5.8393   6.3317   6.4105   6.8059   6.8315
     7.1903   7.1919

          k = 1.0162 0.0000-0.2971 ( 36514 PWs)   bands (ev):

   -44.1643 -44.1643 -22.3024 -22.3024 -22.2766 -22.2766 -22.0775 -22.0775
    -6.6638  -6.6638  -5.7388  -5.7388  -5.7096  -5.7096  -5.4654  -5.4654
    -4.6210  -4.6210  -0.0215  -0.0215   0.8713   0.8713   1.1379   1.1379
     1.4254   1.4254   1.6480   1.6480   2.3280   2.3280   2.7701   2.7701
     3.0155   3.0155   3.2081   3.2081   3.5688   3.5688   3.7412   3.7412
     4.7376   4.7376   5.1513   5.1513   6.3086   6.3086   6.8274   6.8274
     7.2388   7.2388

          k = 1.2703 0.0645 0.0000 ( 36468 PWs)   bands (ev):

   -44.1647 -44.1647 -22.3046 -22.3046 -22.2663 -22.2663 -22.0788 -22.0788
    -6.7895  -6.7187  -6.3474  -6.0684  -5.9926  -5.2801  -5.2661  -5.0388
    -4.6778  -4.6273   0.0108   0.3200   0.6080   1.1546   1.1785   1.1961
     1.5004   1.7070   1.9247   1.9796   2.3987   2.5212   2.5984   2.7389
     2.7935   3.0613   3.2266   3.4223   3.5386   3.5575   3.7934   3.8417
     3.9950   4.4476   5.7384   6.1249   6.2623   6.5336   6.6949   6.8790
     7.0798   7.5498

          k = 1.2703 0.0645 0.1485 ( 36490 PWs)   bands (ev):

   -44.1647 -44.1647 -22.3046 -22.3046 -22.2663 -22.2663 -22.0788 -22.0788
    -6.7765  -6.7258  -6.3390  -6.2004  -5.8157  -5.4021  -5.1930  -5.0630
    -4.6638  -4.6297   0.0874   0.4275   0.5346   0.9224   1.1412   1.2259
     1.5919   1.6207   1.6893   2.2641   2.3196   2.6544   2.6732   2.8520
     2.8693   3.0835   3.2572   3.3414   3.4321   3.5873   3.6991   3.7861
     3.8728   4.8646   5.2088   6.2295   6.4472   6.5584   6.6721   6.9134
     6.9631   7.3536

          k = 1.2703 0.0645-0.2971 ( 36480 PWs)   bands (ev):

   -44.1647 -44.1647 -22.3046 -22.3046 -22.2663 -22.2663 -22.0788 -22.0788
    -6.7481  -6.7481  -6.2989  -6.2989  -5.5948  -5.5948  -5.1225  -5.1225
    -4.6413  -4.6413   0.2899   0.2899   0.7474   0.7474   1.0113   1.0113
     1.5759   1.5759   2.0605   2.0605   2.4970   2.4970   2.8619   2.8619
     2.9677   2.9677   3.2665   3.2665   3.5738   3.5738   3.7247   3.7247
     4.1867   4.1867   5.8755   5.8755   6.3274   6.3274   6.8646   6.8646
     7.1710   7.1710

          k =-0.5081-0.3869 0.0000 ( 36463 PWs)   bands (ev):

   -44.1656 -44.1656 -22.3095 -22.3095 -22.2418 -22.2418 -22.0820 -22.0819
    -7.1601  -6.8811  -6.6290  -6.4569  -6.4028  -5.1755  -5.1623  -4.8002
    -4.7249  -4.4097   0.4786   0.7440   0.8052   1.3685   1.3887   1.5754
     1.6170   1.7839   1.9092   2.2486   2.2681   2.3193   2.5927   3.1724
     3.2618   3.3086   3.3097   3.4346   3.7038   3.7431   3.9465   4.0544
     4.7384   5.2834   5.3458   5.6770   5.9723   6.6268   6.7213   6.7628
     7.1719   7.5210

          k =-0.5081-0.3869 0.1485 ( 36477 PWs)   bands (ev):

   -44.1656 -44.1656 -22.3095 -22.3095 -22.2418 -22.2418 -22.0820 -22.0819
    -7.1277  -6.9292  -6.6336  -6.5903  -6.1591  -5.4839  -4.9717  -4.7651
    -4.7016  -4.4373   0.5066   0.7785   0.9267   1.0895   1.3997   1.4340
     1.5600   1.6725   2.0615   2.0842   2.3509   2.7006   2.9393   3.1477
     3.2711   3.3004   3.3379   3.4624   3.6173   3.7344   3.7982   4.0973
     4.3412   4.6182   5.8793   6.0085   6.2161   6.5522   6.7502   6.7761
     7.0441   7.4820

          k =-0.5081-0.3869-0.2971 ( 36492 PWs)   bands (ev):

   -44.1656 -44.1656 -22.3095 -22.3095 -22.2418 -22.2418 -22.0820 -22.0820
    -7.0383  -7.0383  -6.6341  -6.6341  -5.8315  -5.8315  -4.8580  -4.8580
    -4.5364  -4.5364   0.6444   0.6444   1.0982   1.0982   1.2627   1.2627
     1.5139   1.5139   2.0620   2.0620   2.8616   2.8616   3.2106   3.2106
     3.2390   3.2390   3.3268   3.3268   3.6690   3.6690   3.8639   3.8639
     4.1655   4.1655   6.1045   6.1045   6.6192   6.6192   6.7486   6.7486
     7.0892   7.0892

          k =-0.2541-0.3224 0.0000 ( 36485 PWs)   bands (ev):

   -44.1666 -44.1666 -22.3142 -22.3142 -22.2174 -22.2174 -22.0851 -22.0851
    -7.4816  -7.0850  -6.7586  -6.6829  -6.6569  -5.2051  -5.1790  -4.9093
    -4.8225  -4.0028   0.6342   0.9732   0.9840   1.2157   1.3278   1.5462
     2.0050   2.1958   2.2756   2.3806   2.5126   3.1375   3.2343   3.3037
     3.5068   3.7034   3.7785   3.8390   4.0072   4.0296   4.0956   4.2114
     4.3880   4.6719   5.7472   6.0381   6.3851   6.4970   6.6831   6.8779
     6.9683   7.0129

          k =-0.2541-0.3224 0.1485 ( 36445 PWs)   bands (ev):

   -44.1666 -44.1666 -22.3142 -22.3142 -22.2174 -22.2174 -22.0851 -22.0851
    -7.4443  -7.1822  -6.7743  -6.7574  -6.4035  -5.6147  -4.9796  -4.8478
    -4.6899  -4.0913   0.6374   0.9404   1.0972   1.1093   1.2051   1.6858
     1.8935   2.2586   2.4018   2.5216   2.6510   2.9268   3.2232   3.2875
     3.3198   3.4978   3.8000   3.8737   3.9424   4.0347   4.0787   4.1394
     4.6867   5.0544   5.7676   5.8059   6.1782   6.2884   6.6886   6.7223
     7.1773   7.2487

          k =-0.2541-0.3224-0.2971 ( 36442 PWs)   bands (ev):

   -44.1666 -44.1666 -22.3142 -22.3142 -22.2174 -22.2174 -22.0851 -22.0851
    -7.3369  -7.3369  -6.7744  -6.7744  -6.0344  -6.0344  -4.9087  -4.9087
    -4.3390  -4.3390   0.7409   0.7409   1.1256   1.1256   1.3682   1.3682
     2.2338   2.2338   2.5143   2.5143   2.8103   2.8103   3.1587   3.1587
     3.2887   3.2887   3.7974   3.7974   3.9837   3.9837   4.1221   4.1221
     5.2233   5.2233   5.6620   5.6620   5.9949   5.9949   6.6905   6.6905
     7.3714   7.3715

          k = 0.0000-0.2579 0.0000 ( 36445 PWs)   bands (ev):

   -44.1670 -44.1670 -22.3161 -22.3161 -22.2072 -22.2072 -22.0865 -22.0864
    -7.6032  -7.1820  -6.7962  -6.7823  -6.7025  -5.2326  -5.1964  -4.9499
    -4.8642  -3.8681   0.5651   0.8008   0.8305   1.0658   1.5424   1.6747
     2.4116   2.5516   2.5728   3.0348   3.0512   3.1716   3.1783   3.2370
     3.2483   3.4784   3.7821   4.0062   4.0385   4.0714   4.1392   4.6239
     5.2857   5.4287   5.5510   5.6138   5.9196   6.1887   6.6244   6.6250
     6.9323   7.3714

          k = 0.0000-0.2579 0.1485 ( 36452 PWs)   bands (ev):

   -44.1670 -44.1670 -22.3161 -22.3161 -22.2072 -22.2072 -22.0864 -22.0864
    -7.5650  -7.2916  -6.8195  -6.7970  -6.4864  -5.6718  -4.9962  -4.8858
    -4.6919  -3.9802   0.5770   0.8309   0.9866   1.0880   1.1145   2.1170
     2.1854   2.4328   2.5470   3.0514   3.0602   3.1109   3.1541   3.1691
     3.6222   3.6578   3.6985   3.9345   3.9928   4.1219   4.1687   4.6486
     4.9970   5.0341   5.6970   5.9187   6.1023   6.1171   6.5195   6.7756
     6.8719   7.2483

          k = 0.0000-0.2579-0.2971 ( 36454 PWs)   bands (ev):

   -44.1670 -44.1670 -22.3161 -22.3161 -22.2072 -22.2072 -22.0864 -22.0864
    -7.4543  -7.4543  -6.8124  -6.8124  -6.1107  -6.1107  -4.9375  -4.9375
    -4.2816  -4.2816   0.7473   0.7473   0.9214   0.9214   1.5405   1.5405
     2.4875   2.4875   2.7339   2.7339   3.0939   3.0939   3.0965   3.0965
     3.7704   3.7704   3.8426   3.8426   4.0894   4.0894   4.4412   4.4412
     4.7524   4.7524   5.8922   5.8922   6.3306   6.3306   6.3917   6.3917
     7.2060   7.2060

          k = 1.5243 0.0000 0.0000 ( 36439 PWs)   bands (ev):

   -44.1656 -44.1656 -22.3095 -22.3095 -22.2418 -22.2418 -22.0820 -22.0819
    -7.1517  -6.8790  -6.6361  -6.4641  -6.4013  -5.1745  -5.1664  -4.8008
    -4.7231  -4.4101   0.4831   0.7375   0.7992   1.3713   1.5035   1.5428
     1.6093   1.8044   1.8894   2.2663   2.2674   2.3237   2.6019   3.1159
     3.2500   3.2816   3.3209   3.4982   3.6431   3.6918   3.9421   4.0670
     4.7338   5.2801   5.3173   5.6621   5.9970   6.5908   6.7885   6.7959
     7.1268   7.5194

          k = 1.5243 0.0000 0.1485 ( 36476 PWs)   bands (ev):

   -44.1656 -44.1656 -22.3095 -22.3095 -22.2418 -22.2418 -22.0820 -22.0819
    -7.1193  -6.9238  -6.6411  -6.5997  -6.1582  -5.4829  -4.9775  -4.7653
    -4.6995  -4.4366   0.5106   0.7768   0.9215   1.0876   1.4309   1.5168
     1.5185   1.6746   2.0671   2.0956   2.3455   2.7158   2.9507   3.0917
     3.2491   3.3062   3.3188   3.5431   3.5623   3.6979   3.7849   4.1037
     4.3029   4.6152   5.8556   6.0127   6.2159   6.5251   6.7972   6.8336
     6.9967   7.4939

          k = 1.5243 0.0000-0.2971 ( 36508 PWs)   bands (ev):

   -44.1656 -44.1656 -22.3095 -22.3095 -22.2418 -22.2418 -22.0820 -22.0820
    -7.0303  -7.0303  -6.6440  -6.6440  -5.8300  -5.8300  -4.8620  -4.8620
    -4.5341  -4.5341   0.6485   0.6485   1.0955   1.0955   1.2602   1.2602
     1.5554   1.5554   2.0605   2.0605   2.8698   2.8698   3.1502   3.1502
     3.2797   3.2797   3.3378   3.3378   3.6401   3.6401   3.8627   3.8627
     4.1363   4.1363   6.0889   6.0889   6.6145   6.6145   6.7690   6.7690
     7.0948   7.0948

          k =-0.2541-0.4514 0.0000 ( 36444 PWs)   bands (ev):

   -44.1666 -44.1666 -22.3142 -22.3142 -22.2174 -22.2174 -22.0851 -22.0851
    -7.4677  -7.0718  -6.7714  -6.6815  -6.6802  -5.2030  -5.1871  -4.9107
    -4.8191  -4.0039   0.6413   0.9845   1.0913   1.2632   1.4186   1.5439
     2.0434   2.1832   2.2819   2.3008   2.4285   3.1167   3.1855   3.2501
     3.5018   3.7194   3.7352   3.8146   3.9705   4.0112   4.0685   4.1856
     4.4385   4.5907   5.8082   6.0437   6.3967   6.4477   6.7309   6.9050
     6.9071   7.0059

          k =-0.2541-0.4514 0.1485 ( 36461 PWs)   bands (ev):

   -44.1666 -44.1666 -22.3142 -22.3142 -22.2174 -22.2174 -22.0851 -22.0851
    -7.4303  -7.1674  -6.7897  -6.7773  -6.4046  -5.6126  -4.9931  -4.8473
    -4.6842  -4.0910   0.6407   0.9609   1.1129   1.2441   1.2907   1.7058
     1.9059   2.2326   2.3002   2.4677   2.6724   2.9204   3.1707   3.1855
     3.3512   3.4901   3.8204   3.8287   3.9368   4.0012   4.0499   4.0899
     4.6955   5.0208   5.7662   5.8162   6.1888   6.2310   6.7484   6.7625
     7.1415   7.2448

          k =-0.2541-0.4514-0.2971 ( 36490 PWs)   bands (ev):

   -44.1666 -44.1666 -22.3142 -22.3142 -22.2174 -22.2174 -22.0851 -22.0851
    -7.3224  -7.3224  -6.7934  -6.7934  -6.0324  -6.0324  -4.9155  -4.9155
    -4.3358  -4.3358   0.7409   0.7409   1.2518   1.2518   1.3857   1.3857
     2.2090   2.2090   2.4401   2.4401   2.8214   2.8214   3.1566   3.1566
     3.2286   3.2286   3.7852   3.7852   3.9956   3.9956   4.0637   4.0637
     5.2140   5.2140   5.6429   5.6429   5.9667   5.9667   6.7550   6.7550
     7.3490   7.3490

          k = 0.0000-0.3869 0.0000 ( 36477 PWs)   bands (ev):

   -44.1670 -44.1670 -22.3161 -22.3161 -22.2072 -22.2072 -22.0865 -22.0864
    -7.5860  -7.1623  -6.8151  -6.7789  -6.7354  -5.2301  -5.2067  -4.9532
    -4.8588  -3.8697   0.5886   0.8462   0.9633   1.1340   1.6076   1.6960
     2.4222   2.5155   2.5916   2.8858   3.0254   3.0348   3.0928   3.2424
     3.3066   3.4523   3.8169   3.8895   3.9911   4.0055   4.0381   4.6293
     5.2706   5.3867   5.5681   5.6911   5.9493   6.2192   6.5202   6.6981
     6.9345   7.2979

          k = 0.0000-0.3869 0.1485 ( 36452 PWs)   bands (ev):

   -44.1670 -44.1670 -22.3161 -22.3161 -22.2072 -22.2072 -22.0864 -22.0864
    -7.5476  -7.2722  -6.8420  -6.8190  -6.4901  -5.6692  -5.0149  -4.8845
    -4.6843  -3.9800   0.5876   0.9531   1.0790   1.1083   1.1962   2.1458
     2.2052   2.4444   2.5643   2.8308   2.8619   3.0442   3.1567   3.2547
     3.6042   3.6343   3.6976   3.9111   3.9892   4.0033   4.0639   4.6539
     4.9954   5.0218   5.7287   5.9240   6.0853   6.1206   6.4857   6.7780
     6.9339   7.2061

          k = 0.0000-0.3869-0.2971 ( 36454 PWs)   bands (ev):

   -44.1670 -44.1670 -22.3161 -22.3161 -22.2072 -22.2072 -22.0864 -22.0864
    -7.4362  -7.4362  -6.8366  -6.8366  -6.1088  -6.1088  -4.9462  -4.9462
    -4.2777  -4.2777   0.7449   0.7449   1.0788   1.0788   1.5689   1.5689
     2.5017   2.5017   2.6648   2.6648   2.9684   2.9684   3.0790   3.0790
     3.7741   3.7741   3.8318   3.8318   3.9890   3.9890   4.4293   4.4293
     4.7562   4.7562   5.8535   5.8535   6.3490   6.3490   6.3949   6.3949
     7.1799   7.1799

          k =-2.0325 0.0000 0.0000 ( 36452 PWs)   bands (ev):

   -44.1670 -44.1670 -22.3161 -22.3161 -22.2072 -22.2072 -22.0865 -22.0864
    -7.5785  -7.1539  -6.8209  -6.7775  -6.7517  -5.2291  -5.2112  -4.9538
    -4.8573  -3.8704   0.5913   0.8529   1.0670   1.1480   1.6493   1.7044
     2.4268   2.4855   2.5998   2.7406   2.9466   3.0277   3.1245   3.2400
     3.3948   3.4412   3.7818   3.8493   3.9440   3.9747   4.0379   4.6316
     5.2645   5.3749   5.5752   5.7282   5.9623   6.2280   6.4705   6.7232
     6.9354   7.2351

          k =-2.0325 0.0000 0.1485 ( 36456 PWs)   bands (ev):

   -44.1670 -44.1670 -22.3161 -22.3161 -22.2072 -22.2072 -22.0864 -22.0864
    -7.5400  -7.2637  -6.8511  -6.8293  -6.4915  -5.6681  -5.0221  -4.8844
    -4.6813  -3.9799   0.5866   1.0000   1.0897   1.1527   1.2603   2.1573
     2.2096   2.4494   2.5719   2.6938   2.7693   3.0373   3.1514   3.3204
     3.5967   3.6127   3.7084   3.8794   3.9627   3.9877   4.0296   4.6562
     4.9947   5.0191   5.7456   5.9264   6.0658   6.1263   6.4717   6.7790
     6.9537   7.1895

          k =-2.0325 0.0000-0.2971 ( 36460 PWs)   bands (ev):

   -44.1670 -44.1670 -22.3161 -22.3161 -22.2072 -22.2072 -22.0864 -22.0864
    -7.4283  -7.4283  -6.8471  -6.8471  -6.1080  -6.1080  -4.9498  -4.9498
    -4.2761  -4.2761   0.7410   0.7410   1.1618   1.1618   1.5827   1.5827
     2.5078   2.5078   2.5783   2.5783   2.9565   2.9565   3.0726   3.0726
     3.7675   3.7675   3.8273   3.8273   3.9607   3.9607   4.4250   4.4250
     4.7578   4.7578   5.8366   5.8366   6.3541   6.3541   6.3963   6.3963
     7.1665   7.1665

     the Fermi energy is     5.2606 ev

!    total energy              =   -4240.92667938 Ry

     total all-electron energy =   -150287.620374 Ry
     estimated scf accuracy    <          3.4E-11 Ry
     smearing contrib. (-TS)   =      -0.00001538 Ry
     internal energy E=F+TS    =   -4240.92666400 Ry

     The total energy is F=E-TS. E is the sum of the following terms:
     one-electron contribution =    -164.20521538 Ry
     hartree contribution      =     115.55728712 Ry
     xc contribution           =    -201.39678621 Ry
     ewald contribution        =    -223.37413308 Ry
     one-center paw contrib.   =   -3767.50781645 Ry

     convergence has been achieved in  18 iterations

     Forces acting on atoms (cartesian axes, Ry/au):

     atom    1 type  1   force =     0.00000000   -0.02785324    0.00000000
     atom    2 type  1   force =     0.00000000    0.02785324    0.00000000
     atom    3 type  2   force =     0.00000000    0.00220950    0.00000000
     atom    4 type  2   force =     0.00000000   -0.00220950    0.00000000
     atom    5 type  2   force =     0.00000000    0.00615033   -0.00088123
     atom    6 type  2   force =     0.00000000   -0.00615033    0.00088123
     atom    7 type  2   force =    -0.00000000    0.00615033    0.00088123
     atom    8 type  2   force =     0.00000000   -0.00615033   -0.00088123
     atom    9 type  2   force =     0.00000000    0.01987201    0.01235341
     atom   10 type  2   force =     0.00000000   -0.01987201   -0.01235341
     atom   11 type  2   force =     0.00000000    0.01987201   -0.01235341
     atom   12 type  2   force =     0.00000000   -0.01987201    0.01235341

     Total force =     0.062496     Total SCF correction =     0.000008


     Computing stress (Cartesian axis) and pressure

          total   stress  (Ry/bohr**3)                   (kbar)     P=       -5.16
  -0.00001928   0.00000000   0.00000000           -2.84        0.00        0.00
   0.00000000  -0.00003348   0.00000000            0.00       -4.92        0.00
   0.00000000   0.00000000  -0.00005256            0.00        0.00       -7.73

 
     init_run     :     35.73s CPU     36.57s WALL (       1 calls)
     electrons    :   1824.53s CPU   1842.35s WALL (       1 calls)
     forces       :      7.62s CPU      7.91s WALL (       1 calls)
     stress       :     46.63s CPU     47.25s WALL (       1 calls)

     Called by init_run:
     wfcinit      :     30.80s CPU     31.24s WALL (       1 calls)
     potinit      :      1.50s CPU      1.56s WALL (       1 calls)
     hinit0       :      1.63s CPU      1.67s WALL (       1 calls)

     Called by electrons:
     c_bands      :   1493.28s CPU   1500.89s WALL (      19 calls)
     sum_band     :    296.45s CPU    302.33s WALL (      19 calls)
     v_of_rho     :      9.01s CPU      9.65s WALL (      19 calls)
     newd         :     18.45s CPU     22.36s WALL (      19 calls)
     PAW_pot      :      6.80s CPU      6.81s WALL (      19 calls)
     mix_rho      :      1.63s CPU      1.68s WALL (      19 calls)

     Called by c_bands:
     init_us_2    :     14.07s CPU     14.15s WALL (    2583 calls)
     cegterg      :   1412.67s CPU   1419.58s WALL (    1197 calls)

     Called by *egterg:
     cdiaghg      :     28.92s CPU     29.04s WALL (    8371 calls)
     h_psi        :   1219.23s CPU   1225.98s WALL (    8497 calls)
     s_psi        :     52.66s CPU     52.77s WALL (    8497 calls)
     g_psi        :      2.40s CPU      2.43s WALL (    7237 calls)

     Called by h_psi:
     h_psi:calbec :     45.73s CPU     45.84s WALL (    8497 calls)
     vloc_psi     :   1117.12s CPU   1123.62s WALL (    8497 calls)
     add_vuspsi   :     52.25s CPU     52.34s WALL (    8497 calls)

     General routines
     calbec       :     60.09s CPU     60.23s WALL (   10009 calls)
     fft          :      8.13s CPU      8.38s WALL (     271 calls)
     ffts         :      0.20s CPU      0.20s WALL (      38 calls)
     fftw         :   1122.38s CPU   1128.65s WALL (  448902 calls)
     interpolate  :      0.66s CPU      0.66s WALL (      19 calls)
 
     Parallel routines
     fft_scatt_xy :    264.90s CPU    266.56s WALL (  449211 calls)
     fft_scatt_yz :    314.92s CPU    316.78s WALL (  449211 calls)
 
     PWSCF        :  31m54.75s CPU  32m14.88s WALL

 
   This run was terminated on:  15:33: 7  19Nov2021            

=------------------------------------------------------------------------------=
   JOB DONE.
=------------------------------------------------------------------------------=
