
     Program PWSCF v.6.7MaX starts on 19Nov2021 at 14:46:17 

     This program is part of the open-source Quantum ESPRESSO suite
     for quantum simulation of materials; please cite
         "P. Giannozzi et al., J. Phys.:Condens. Matter 21 395502 (2009);
         "P. Giannozzi et al., J. Phys.:Condens. Matter 29 465901 (2017);
          URL http://www.quantum-espresso.org", 
     in publications or presentations arising from this work. More details at
     http://www.quantum-espresso.org/quote

     Parallel version (MPI), running on    10 processors

     MPI processes distributed on     1 nodes
     R & G space division:  proc/nbgrp/npool/nimage =      10
     Waiting for input...
     Reading input from standard input

     Current dimensions of program PWSCF are:
     Max number of different atomic species (ntypx) = 10
     Max number of k-points (npk) =  40000
     Max angular momentum in pseudopotentials (lmaxx) =  3
     file Zr.pbe-spn-kjpaw_psl.1.0.0.UPF: wavefunction(s)  4S 4P renormalized
     file Te.pbe-n-kjpaw_psl.1.0.0.UPF: wavefunction(s)  5S 5P renormalized

     Subspace diagonalization in iterative solution of the eigenvalue problem:
     a serial algorithm will be used

     Message from routine setup:
     using ibrav=0 with symmetry is DISCOURAGED, use correct ibrav instead
 
     Parallelization info
     --------------------
     sticks:   dense  smooth     PW     G-vecs:    dense   smooth      PW
     Min         734     293     87               115340    29174    4753
     Max         735     295     88               115345    29176    4760
     Sum        7345    2937    873              1153415   291749   47557
 


     bravais-lattice index     =            0
     lattice parameter (alat)  =      15.5510  a.u.
     unit-cell volume          =    3018.5011 (a.u.)^3
     number of atoms/cell      =           12
     number of atomic types    =            2
     number of electrons       =        84.00
     number of Kohn-Sham states=           50
     kinetic-energy cutoff     =      80.0000  Ry
     charge density cutoff     =     800.0000  Ry
     scf convergence threshold =      1.0E-10
     mixing beta               =       0.7000
     number of iterations used =            8  plain     mixing
     Exchange-correlation= SLA  PW   PBX  PBC
                           (   1   4   3   4   0   0   0)

     celldm(1)=  15.551040  celldm(2)=   0.000000  celldm(3)=   0.000000
     celldm(4)=   0.000000  celldm(5)=   0.000000  celldm(6)=   0.000000

     crystal axes: (cart. coord. in units of alat)
               a(1) = (   0.246007  -0.969268   0.000000 )  
               a(2) = (   0.246007   0.969268   0.000000 )  
               a(3) = (   0.000000   0.000000   1.683031 )  

     reciprocal axes: (cart. coord. in units 2 pi/alat)
               b(1) = (  2.032465 -0.515853  0.000000 )  
               b(2) = (  2.032465  0.515853  0.000000 )  
               b(3) = (  0.000000  0.000000  0.594166 )  


     PseudoPot. # 1 for Zr read from file:
     pseudo/Zr.pbe-spn-kjpaw_psl.1.0.0.UPF
     MD5 check sum: 02112c41713a0468aff2bb39ef194e36
     Pseudo is Projector augmented-wave + core cor, Zval = 12.0
     Generated using &quot;atomic&quot; code by A. Dal Corso  v.6.2.2
     Shape of augmentation charge: PSQ
     Using radial grid of 1225 points,  6 beta functions with: 
                l(1) =   0
                l(2) =   0
                l(3) =   1
                l(4) =   1
                l(5) =   2
                l(6) =   2
     Q(r) pseudized with 0 coefficients 


     PseudoPot. # 2 for Te read from file:
     pseudo/Te.pbe-n-kjpaw_psl.1.0.0.UPF
     MD5 check sum: 66247bff2bd9dbf220fbb0bf5ab56e9d
     Pseudo is Projector augmented-wave + core cor, Zval =  6.0
     Generated using &quot;atomic&quot; code by A. Dal Corso  v.6.3
     Shape of augmentation charge: PSQ
     Using radial grid of 1245 points,  6 beta functions with: 
                l(1) =   0
                l(2) =   0
                l(3) =   1
                l(4) =   1
                l(5) =   2
                l(6) =   2
     Q(r) pseudized with 0 coefficients 


     atomic species   valence    mass     pseudopotential
        Zr            12.00    91.22000     Zr( 1.00)
        Te             6.00   127.60000     Te( 1.00)

      8 Sym. Ops., with inversion, found ( 4 have fractional translation)



   Cartesian axes

     site n.     atom                  positions (alat units)
         1           Zr  tau(   1) = (   0.0000000   0.6043195   0.4207578  )
         2           Zr  tau(   2) = (   0.2460067   0.3649487   1.2622733  )
         3           Te  tau(   3) = (   0.2460067   0.3342225   0.4207578  )
         4           Te  tau(   4) = (   0.0000000   0.6350456   1.2622733  )
         5           Te  tau(   5) = (   0.2460067   0.8104121   0.2524636  )
         6           Te  tau(   6) = (   0.0000000   0.1588561   1.4305675  )
         7           Te  tau(   7) = (   0.2460067   0.8104121   0.5890520  )
         8           Te  tau(   8) = (   0.0000000   0.1588561   1.0939791  )
         9           Te  tau(   9) = (   0.0000000   0.4171482   0.7330351  )
        10           Te  tau(  10) = (   0.2460067   0.5521199   0.9499959  )
        11           Te  tau(  11) = (   0.0000000   0.4171482   0.1084804  )
        12           Te  tau(  12) = (   0.2460067   0.5521199   1.5745507  )

     number of k points=    63  Methfessel-Paxton smearing, width (Ry)=  0.0030
                       cart. coord. in units 2pi/alat
        k(    1) = (   0.0000000   0.0000000   0.0000000), wk =   0.0078125
        k(    2) = (   0.0000000   0.0000000   0.1485415), wk =   0.0156250
        k(    3) = (   0.0000000   0.0000000  -0.2970830), wk =   0.0078125
        k(    4) = (   0.2540581   0.0644816   0.0000000), wk =   0.0312500
        k(    5) = (   0.2540581   0.0644816   0.1485415), wk =   0.0625000
        k(    6) = (   0.2540581   0.0644816  -0.2970830), wk =   0.0312500
        k(    7) = (   0.5081162   0.1289633   0.0000000), wk =   0.0312500
        k(    8) = (   0.5081162   0.1289633   0.1485415), wk =   0.0625000
        k(    9) = (   0.5081162   0.1289633  -0.2970830), wk =   0.0312500
        k(   10) = (   0.7621743   0.1934449   0.0000000), wk =   0.0312500
        k(   11) = (   0.7621743   0.1934449   0.1485415), wk =   0.0625000
        k(   12) = (   0.7621743   0.1934449  -0.2970830), wk =   0.0312500
        k(   13) = (  -1.0162324  -0.2579266   0.0000000), wk =   0.0156250
        k(   14) = (  -1.0162324  -0.2579266   0.1485415), wk =   0.0312500
        k(   15) = (  -1.0162324  -0.2579266  -0.2970830), wk =   0.0156250
        k(   16) = (   0.5081162   0.0000000   0.0000000), wk =   0.0156250
        k(   17) = (   0.5081162   0.0000000   0.1485415), wk =   0.0312500
        k(   18) = (   0.5081162   0.0000000  -0.2970830), wk =   0.0156250
        k(   19) = (   0.7621743   0.0644816   0.0000000), wk =   0.0312500
        k(   20) = (   0.7621743   0.0644816   0.1485415), wk =   0.0625000
        k(   21) = (   0.7621743   0.0644816  -0.2970830), wk =   0.0312500
        k(   22) = (   1.0162324   0.1289633   0.0000000), wk =   0.0312500
        k(   23) = (   1.0162324   0.1289633   0.1485415), wk =   0.0625000
        k(   24) = (   1.0162324   0.1289633  -0.2970830), wk =   0.0312500
        k(   25) = (  -0.7621743  -0.3224082   0.0000000), wk =   0.0312500
        k(   26) = (  -0.7621743  -0.3224082   0.1485415), wk =   0.0625000
        k(   27) = (  -0.7621743  -0.3224082  -0.2970830), wk =   0.0312500
        k(   28) = (  -0.5081162  -0.2579266   0.0000000), wk =   0.0312500
        k(   29) = (  -0.5081162  -0.2579266   0.1485415), wk =   0.0625000
        k(   30) = (  -0.5081162  -0.2579266  -0.2970830), wk =   0.0312500
        k(   31) = (  -0.2540581  -0.1934449   0.0000000), wk =   0.0312500
        k(   32) = (  -0.2540581  -0.1934449   0.1485415), wk =   0.0625000
        k(   33) = (  -0.2540581  -0.1934449  -0.2970830), wk =   0.0312500
        k(   34) = (   0.0000000  -0.1289633   0.0000000), wk =   0.0156250
        k(   35) = (   0.0000000  -0.1289633   0.1485415), wk =   0.0312500
        k(   36) = (   0.0000000  -0.1289633  -0.2970830), wk =   0.0156250
        k(   37) = (   1.0162324   0.0000000   0.0000000), wk =   0.0156250
        k(   38) = (   1.0162324   0.0000000   0.1485415), wk =   0.0312500
        k(   39) = (   1.0162324   0.0000000  -0.2970830), wk =   0.0156250
        k(   40) = (   1.2702905   0.0644816   0.0000000), wk =   0.0312500
        k(   41) = (   1.2702905   0.0644816   0.1485415), wk =   0.0625000
        k(   42) = (   1.2702905   0.0644816  -0.2970830), wk =   0.0312500
        k(   43) = (  -0.5081162  -0.3868899   0.0000000), wk =   0.0312500
        k(   44) = (  -0.5081162  -0.3868899   0.1485415), wk =   0.0625000
        k(   45) = (  -0.5081162  -0.3868899  -0.2970830), wk =   0.0312500
        k(   46) = (  -0.2540581  -0.3224082   0.0000000), wk =   0.0312500
        k(   47) = (  -0.2540581  -0.3224082   0.1485415), wk =   0.0625000
        k(   48) = (  -0.2540581  -0.3224082  -0.2970830), wk =   0.0312500
        k(   49) = (   0.0000000  -0.2579266   0.0000000), wk =   0.0156250
        k(   50) = (   0.0000000  -0.2579266   0.1485415), wk =   0.0312500
        k(   51) = (   0.0000000  -0.2579266  -0.2970830), wk =   0.0156250
        k(   52) = (   1.5243485   0.0000000   0.0000000), wk =   0.0156250
        k(   53) = (   1.5243485   0.0000000   0.1485415), wk =   0.0312500
        k(   54) = (   1.5243485   0.0000000  -0.2970830), wk =   0.0156250
        k(   55) = (  -0.2540581  -0.4513715   0.0000000), wk =   0.0312500
        k(   56) = (  -0.2540581  -0.4513715   0.1485415), wk =   0.0625000
        k(   57) = (  -0.2540581  -0.4513715  -0.2970830), wk =   0.0312500
        k(   58) = (   0.0000000  -0.3868899   0.0000000), wk =   0.0156250
        k(   59) = (   0.0000000  -0.3868899   0.1485415), wk =   0.0312500
        k(   60) = (   0.0000000  -0.3868899  -0.2970830), wk =   0.0156250
        k(   61) = (  -2.0324647   0.0000000   0.0000000), wk =   0.0078125
        k(   62) = (  -2.0324647   0.0000000   0.1485415), wk =   0.0156250
        k(   63) = (  -2.0324647   0.0000000  -0.2970830), wk =   0.0078125

     Dense  grid:  1153415 G-vectors     FFT dimensions: ( 144, 144, 240)

     Smooth grid:   291749 G-vectors     FFT dimensions: (  90,  90, 150)

     Estimated max dynamical RAM per process >     657.19 MB

     Estimated total dynamical RAM >       6.42 GB

     Initial potential from superposition of free atoms

     starting charge   83.99353, renormalised to   84.00000
     Starting wfcs are   66 randomized atomic wfcs
     Checking if some PAW data can be deallocated... 

     total cpu time spent up to now is       44.2 secs

     Self-consistent Calculation

     iteration #  1     ecut=    80.00 Ry     beta= 0.70
     Davidson diagonalization with overlap
     ethr =  1.00E-02,  avg # of iterations =  2.1

     Threshold (ethr) on eigenvalues was too large:
     Diagonalizing with lowered threshold

     Davidson diagonalization with overlap
     ethr =  4.25E-04,  avg # of iterations =  3.9

     total cpu time spent up to now is      203.8 secs

     total energy              =   -4240.72989117 Ry
     estimated scf accuracy    <       0.43694595 Ry

     iteration #  2     ecut=    80.00 Ry     beta= 0.70
     Davidson diagonalization with overlap
     ethr =  5.20E-04,  avg # of iterations =  7.9

     total cpu time spent up to now is      317.0 secs

     total energy              =   -4240.63814993 Ry
     estimated scf accuracy    <       2.02691703 Ry

     iteration #  3     ecut=    80.00 Ry     beta= 0.70
     Davidson diagonalization with overlap
     ethr =  5.20E-04,  avg # of iterations =  5.4

     total cpu time spent up to now is      411.5 secs

     total energy              =   -4240.93877893 Ry
     estimated scf accuracy    <       0.00894810 Ry

     iteration #  4     ecut=    80.00 Ry     beta= 0.70
     Davidson diagonalization with overlap
     c_bands:  1 eigenvalues not converged
     c_bands:  1 eigenvalues not converged
     c_bands:  2 eigenvalues not converged
     c_bands:  1 eigenvalues not converged
     c_bands:  1 eigenvalues not converged
     c_bands:  1 eigenvalues not converged
     c_bands:  1 eigenvalues not converged
     c_bands:  2 eigenvalues not converged
     c_bands:  2 eigenvalues not converged
     c_bands:  1 eigenvalues not converged
     c_bands:  2 eigenvalues not converged
     c_bands:  2 eigenvalues not converged
     c_bands:  2 eigenvalues not converged
     c_bands:  1 eigenvalues not converged
     c_bands:  2 eigenvalues not converged
     c_bands:  1 eigenvalues not converged
     c_bands:  1 eigenvalues not converged
     c_bands:  1 eigenvalues not converged
     c_bands:  1 eigenvalues not converged
     c_bands:  1 eigenvalues not converged
     c_bands:  1 eigenvalues not converged
     ethr =  1.07E-05,  avg # of iterations = 17.9

     total cpu time spent up to now is      591.7 secs

     total energy              =   -4240.94967128 Ry
     estimated scf accuracy    <       0.05210146 Ry

     iteration #  5     ecut=    80.00 Ry     beta= 0.70
     Davidson diagonalization with overlap
     ethr =  1.07E-05,  avg # of iterations =  7.1

     total cpu time spent up to now is      685.7 secs

     total energy              =   -4240.95159960 Ry
     estimated scf accuracy    <       0.00921692 Ry

     iteration #  6     ecut=    80.00 Ry     beta= 0.70
     Davidson diagonalization with overlap
     ethr =  1.07E-05,  avg # of iterations =  3.1

     total cpu time spent up to now is      761.4 secs

     total energy              =   -4240.95231510 Ry
     estimated scf accuracy    <       0.00122055 Ry

     iteration #  7     ecut=    80.00 Ry     beta= 0.70
     Davidson diagonalization with overlap
     c_bands:  1 eigenvalues not converged
     c_bands:  1 eigenvalues not converged
     ethr =  1.45E-06,  avg # of iterations = 11.2

     total cpu time spent up to now is      884.1 secs

     total energy              =   -4240.95291842 Ry
     estimated scf accuracy    <       0.00132263 Ry

     iteration #  8     ecut=    80.00 Ry     beta= 0.70
     Davidson diagonalization with overlap
     ethr =  1.45E-06,  avg # of iterations =  2.1

     total cpu time spent up to now is      953.7 secs

     total energy              =   -4240.95295342 Ry
     estimated scf accuracy    <       0.00020074 Ry

     iteration #  9     ecut=    80.00 Ry     beta= 0.70
     Davidson diagonalization with overlap
     ethr =  2.39E-07,  avg # of iterations =  6.1

     total cpu time spent up to now is     1044.6 secs

     total energy              =   -4240.95301778 Ry
     estimated scf accuracy    <       0.00002301 Ry

     iteration # 10     ecut=    80.00 Ry     beta= 0.70
     Davidson diagonalization with overlap
     ethr =  2.74E-08,  avg # of iterations =  3.5

     total cpu time spent up to now is     1120.2 secs

     total energy              =   -4240.95302019 Ry
     estimated scf accuracy    <       0.00000434 Ry

     iteration # 11     ecut=    80.00 Ry     beta= 0.70
     Davidson diagonalization with overlap
     ethr =  5.17E-09,  avg # of iterations =  5.9

     total cpu time spent up to now is     1213.6 secs

     total energy              =   -4240.95302213 Ry
     estimated scf accuracy    <       0.00000086 Ry

     iteration # 12     ecut=    80.00 Ry     beta= 0.70
     Davidson diagonalization with overlap
     ethr =  1.03E-09,  avg # of iterations =  3.0

     total cpu time spent up to now is     1286.2 secs

     total energy              =   -4240.95302222 Ry
     estimated scf accuracy    <       0.00000008 Ry

     iteration # 13     ecut=    80.00 Ry     beta= 0.70
     Davidson diagonalization with overlap
     ethr =  9.69E-11,  avg # of iterations =  7.7

     total cpu time spent up to now is     1394.6 secs

     total energy              =   -4240.95302227 Ry
     estimated scf accuracy    <       0.00000005 Ry

     iteration # 14     ecut=    80.00 Ry     beta= 0.70
     Davidson diagonalization with overlap
     ethr =  6.13E-11,  avg # of iterations =  1.8

     total cpu time spent up to now is     1462.3 secs

     total energy              =   -4240.95302227 Ry
     estimated scf accuracy    <       0.00000002 Ry

     iteration # 15     ecut=    80.00 Ry     beta= 0.70
     Davidson diagonalization with overlap
     ethr =  2.15E-11,  avg # of iterations =  5.6

     total cpu time spent up to now is     1547.7 secs

     total energy              =   -4240.95302227 Ry
     estimated scf accuracy    <          1.5E-09 Ry

     iteration # 16     ecut=    80.00 Ry     beta= 0.70
     Davidson diagonalization with overlap
     ethr =  1.76E-12,  avg # of iterations =  5.1

     total cpu time spent up to now is     1631.0 secs

     total energy              =   -4240.95302227 Ry
     estimated scf accuracy    <          5.4E-10 Ry

     iteration # 17     ecut=    80.00 Ry     beta= 0.70
     Davidson diagonalization with overlap
     ethr =  6.38E-13,  avg # of iterations =  4.9

     total cpu time spent up to now is     1711.9 secs

     End of self-consistent calculation

          k = 0.0000 0.0000 0.0000 ( 36359 PWs)   bands (ev):

   -44.1362 -44.1362 -22.2590 -22.2590 -22.1671 -22.1671 -22.0680 -22.0679
    -7.9464  -7.6345  -7.1287  -6.8909  -6.2489  -5.4141  -4.8728  -4.8255
    -4.7751  -3.8199   0.3102   0.7554   0.7875   1.1316   1.4105   1.5344
     2.1742   2.3087   2.4065   2.7600   2.9310   3.0065   3.2873   3.3687
     3.7380   3.8378   4.0058   4.0763   4.2784   4.3391   4.3833   4.6913
     4.7985   5.4547   5.6387   5.8547   5.8934   5.9235   6.0843   6.8126
     7.0119   7.2736

          k = 0.0000 0.0000 0.1485 ( 36415 PWs)   bands (ev):

   -44.1362 -44.1362 -22.2590 -22.2590 -22.1671 -22.1671 -22.0680 -22.0679
    -7.9144  -7.7040  -7.0655  -6.9094  -6.1764  -5.6450  -4.8218  -4.7831
    -4.6139  -3.9340   0.3805   0.8209   0.9037   0.9883   1.0889   1.8945
     2.0448   2.1986   2.3560   2.8022   2.9159   3.1002   3.4039   3.4093
     3.7280   3.8962   3.9831   4.0817   4.2124   4.3632   4.3988   4.6905
     4.7475   4.9598   5.8250   5.9244   5.9253   6.0707   6.4475   6.6305
     6.8304   7.1720

          k = 0.0000 0.0000-0.2971 ( 36410 PWs)   bands (ev):

   -44.1362 -44.1362 -22.2590 -22.2590 -22.1671 -22.1671 -22.0680 -22.0680
    -7.8246  -7.8246  -6.9686  -6.9686  -5.9615  -5.9615  -4.8024  -4.8024
    -4.2320  -4.2320   0.6017   0.6017   0.9406   0.9406   1.3496   1.3496
     2.2664   2.2664   2.6178   2.6178   2.8704   2.8704   3.5316   3.5316
     3.9066   3.9066   4.0484   4.0484   4.3409   4.3409   4.3973   4.3973
     4.6995   4.6995   5.9154   5.9154   6.2247   6.2247   6.4497   6.4497
     6.9287   6.9287

          k = 0.2541 0.0645 0.0000 ( 36396 PWs)   bands (ev):

   -44.1359 -44.1359 -22.2571 -22.2570 -22.1768 -22.1768 -22.0669 -22.0668
    -7.8264  -7.5187  -7.0600  -6.8427  -6.1877  -5.3677  -4.8984  -4.7818
    -4.7307  -3.9797   0.3951   0.8777   0.9150   1.1843   1.2467   1.4407
     1.7054   1.8284   1.8908   2.5747   2.6001   3.1990   3.2779   3.7233
     3.7557   3.7653   3.8369   3.8425   4.0398   4.2492   4.3078   4.3354
     4.4895   4.5660   5.8502   5.9782   6.2012   6.5678   6.6056   6.6990
     7.0205   7.1913

          k = 0.2541 0.0645 0.1485 ( 36423 PWs)   bands (ev):

   -44.1359 -44.1359 -22.2571 -22.2570 -22.1768 -22.1768 -22.0669 -22.0668
    -7.7949  -7.5877  -7.0011  -6.8595  -6.1139  -5.5920  -4.7930  -4.7406
    -4.6441  -4.0704   0.4538   0.9156   0.9337   0.9617   1.1963   1.3716
     1.7529   1.9666   2.1918   2.5642   2.5841   2.9540   3.3640   3.3738
     3.5469   3.7955   3.9417   3.9733   4.0388   4.1706   4.3526   4.3631
     4.6862   4.8118   5.8557   5.9561   6.1565   6.2560   6.3893   6.7578
     7.2174   7.2851

          k = 0.2541 0.0645-0.2971 ( 36436 PWs)   bands (ev):

   -44.1359 -44.1359 -22.2570 -22.2570 -22.1768 -22.1768 -22.0668 -22.0668
    -7.7066  -7.7066  -6.9130  -6.9130  -5.8999  -5.8999  -4.7645  -4.7645
    -4.3163  -4.3163   0.6343   0.6343   1.0330   1.0330   1.1429   1.1429
     2.0166   2.0166   2.4801   2.4801   2.6642   2.6642   3.2148   3.2148
     3.6448   3.6448   3.9606   3.9606   4.1266   4.1266   4.3719   4.3719
     4.9977   4.9977   5.7876   5.7876   6.1469   6.1469   6.4489   6.4489
     7.3936   7.3936

          k = 0.5081 0.1290 0.0000 ( 36499 PWs)   bands (ev):

   -44.1350 -44.1350 -22.2523 -22.2523 -22.2001 -22.2001 -22.0641 -22.0640
    -7.4799  -7.1807  -6.8969  -6.7190  -6.0037  -5.2592  -5.0403  -4.6690
    -4.6212  -4.4543   0.3072   0.5818   0.6454   1.1867   1.2162   1.3421
     1.6389   1.7008   1.9162   2.0994   2.1594   2.2889   2.4672   3.3950
     3.4907   3.5092   3.5728   3.5856   3.7724   3.8628   3.9471   4.1892
     4.3792   5.0014   5.6526   6.0852   6.1574   6.5958   6.6176   6.9780
     7.4512   7.5624

          k = 0.5081 0.1290 0.1485 ( 36476 PWs)   bands (ev):

   -44.1350 -44.1350 -22.2523 -22.2523 -22.2001 -22.2001 -22.0641 -22.0640
    -7.4502  -7.2518  -6.8445  -6.7323  -5.9309  -5.4642  -4.8799  -4.6519
    -4.6364  -4.4799   0.3339   0.5908   0.7567   0.9719   1.2430   1.3269
     1.4166   1.5653   2.0138   2.0952   2.3543   2.4509   2.8175   3.4072
     3.4275   3.4855   3.5183   3.6115   3.7272   3.7574   3.8528   4.2378
     4.3063   4.4916   6.1701   6.2058   6.3570   6.5967   6.6633   6.8438
     7.2930   7.5162

          k = 0.5081 0.1290-0.2971 ( 36466 PWs)   bands (ev):

   -44.1350 -44.1350 -22.2523 -22.2523 -22.2001 -22.2001 -22.0641 -22.0641
    -7.3666  -7.3666  -6.7740  -6.7740  -5.7325  -5.7325  -4.7314  -4.7314
    -4.5552  -4.5552   0.4568   0.4568   1.0078   1.0078   1.0588   1.0588
     1.4322   1.4322   2.0567   2.0567   2.6922   2.6922   3.1707   3.1707
     3.4005   3.4005   3.5607   3.5607   3.7240   3.7240   3.8513   3.8513
     4.3179   4.3179   6.4112   6.4112   6.5637   6.5637   6.8508   6.8508
     7.1665   7.1665

          k = 0.7622 0.1934 0.0000 ( 36521 PWs)   bands (ev):

   -44.1341 -44.1341 -22.2476 -22.2476 -22.2233 -22.2233 -22.0614 -22.0613
    -6.9855  -6.7460  -6.6545  -6.5350  -5.7541  -5.4215  -5.1933  -5.1228
    -4.5440  -4.5072  -0.0353   0.0173   0.4320   0.9808   0.9991   1.2783
     1.4839   1.6026   1.9841   2.1224   2.2385   2.3168   2.4258   2.7965
     2.9195   3.2641   3.3466   3.4709   3.5559   3.6696   3.7213   3.8091
     3.8130   4.5681   5.9743   6.3667   6.4273   6.8715   6.8896   6.9668
     7.3340   7.6295

          k = 0.7622 0.1934 0.1485 ( 36503 PWs)   bands (ev):

   -44.1341 -44.1341 -22.2476 -22.2476 -22.2233 -22.2233 -22.0613 -22.0613
    -6.9618  -6.8071  -6.6150  -6.5443  -5.7038  -5.4691  -5.1847  -5.1340
    -4.5357  -4.5103  -0.0290   0.1800   0.3142   0.8715   0.9847   1.2356
     1.4958   1.6167   1.9442   2.0520   2.1255   2.6117   2.6905   2.8690
     2.8995   3.0703   3.2712   3.3852   3.5235   3.6201   3.6759   3.9327
     3.9764   4.5001   5.7696   6.3747   6.6792   6.7920   6.9635   6.9979
     7.1125   7.6113

          k = 0.7622 0.1934-0.2971 ( 36522 PWs)   bands (ev):

   -44.1341 -44.1341 -22.2476 -22.2476 -22.2233 -22.2233 -22.0613 -22.0613
    -6.8962  -6.8962  -6.5714  -6.5714  -5.5853  -5.5853  -5.1603  -5.1603
    -4.5205  -4.5205   0.1026   0.1026   0.5161   0.5161   1.0827   1.0827
     1.5635   1.5635   2.0126   2.0126   2.3926   2.3926   2.8267   2.8267
     2.9828   2.9828   3.3055   3.3055   3.5973   3.5973   3.9108   3.9108
     4.0748   4.0748   6.2100   6.2100   6.4719   6.4719   7.0085   7.0085
     7.4702   7.4702

          k =-1.0162-0.2579 0.0000 ( 36506 PWs)   bands (ev):

   -44.1337 -44.1337 -22.2455 -22.2455 -22.2329 -22.2329 -22.0602 -22.0602
    -6.7255  -6.7053  -6.0651  -6.0539  -6.0216  -6.0152  -5.2887  -5.2882
    -4.4866  -4.4599  -0.0533  -0.0318   0.2627   0.2844   1.0114   1.0203
     1.4676   1.6667   2.2293   2.3912   2.4042   2.4223   2.8081   2.8175
     2.8181   2.8256   3.2013   3.2561   3.3191   3.3946   3.4716   3.6803
     3.8345   4.1206   6.6009   6.6185   6.6402   6.6765   7.0558   7.1528
     7.1573   7.1961

          k =-1.0162-0.2579 0.1485 ( 36506 PWs)   bands (ev):

   -44.1337 -44.1337 -22.2455 -22.2455 -22.2329 -22.2329 -22.0602 -22.0602
    -6.7215  -6.7071  -6.0889  -6.0811  -5.9963  -5.9916  -5.2862  -5.2859
    -4.4857  -4.4668  -0.1502  -0.1437   0.4750   0.4824   1.0076   1.0222
     1.4627   1.5943   2.0161   2.1247   2.3673   2.3977   2.6857   2.6909
     2.9362   3.0446   3.0879   3.1945   3.5546   3.5693   3.6246   3.7472
     4.0341   4.1684   6.0919   6.1102   6.5154   6.5917   7.1480   7.1654
     7.3601   7.4183

          k =-1.0162-0.2579-0.2971 ( 36528 PWs)   bands (ev):

   -44.1337 -44.1337 -22.2455 -22.2455 -22.2329 -22.2329 -22.0602 -22.0602
    -6.7131  -6.7131  -6.1011  -6.1011  -5.9790  -5.9790  -5.2836  -5.2836
    -4.4793  -4.4793  -0.2100  -0.2100   0.7033   0.7033   0.9606   0.9606
     1.5188   1.5188   1.8156   1.8156   2.3679   2.3679   2.7660   2.7660
     2.8796   2.8796   3.1699   3.1699   3.6361   3.6361   3.8043   3.8043
     4.3405   4.3405   5.6759   5.6759   6.4651   6.4651   7.1762   7.1762
     7.4763   7.4763

          k = 0.5081 0.0000 0.0000 ( 36503 PWs)   bands (ev):

   -44.1350 -44.1350 -22.2523 -22.2523 -22.2001 -22.2001 -22.0641 -22.0640
    -7.4833  -7.1813  -6.8976  -6.7158  -6.0003  -5.2591  -5.0376  -4.6631
    -4.6283  -4.4539   0.3124   0.5827   0.6385   1.1822   1.2285   1.2939
     1.6352   1.6963   1.9024   2.1050   2.1634   2.2673   2.4675   3.3867
     3.5113   3.5386   3.5671   3.5815   3.7806   3.9180   3.9308   4.2266
     4.3814   4.9960   5.6585   6.0620   6.1931   6.5579   6.5659   7.0142
     7.4630   7.5798

          k = 0.5081 0.0000 0.1485 ( 36453 PWs)   bands (ev):

   -44.1350 -44.1350 -22.2523 -22.2523 -22.2001 -22.2001 -22.0641 -22.0640
    -7.4534  -7.2535  -6.8436  -6.7292  -5.9284  -5.4638  -4.8757  -4.6533
    -4.6360  -4.4811   0.3367   0.5849   0.7575   0.9760   1.2548   1.3034
     1.3871   1.5435   2.0116   2.1061   2.3804   2.4015   2.8150   3.4083
     3.4725   3.4802   3.4970   3.6208   3.7177   3.8278   3.8373   4.2809
     4.3155   4.4817   6.1615   6.2159   6.3761   6.5496   6.6261   6.8763
     7.3118   7.5266

          k = 0.5081 0.0000-0.2971 ( 36452 PWs)   bands (ev):

   -44.1350 -44.1350 -22.2523 -22.2523 -22.2001 -22.2001 -22.0641 -22.0641
    -7.3694  -7.3694  -6.7715  -6.7715  -5.7314  -5.7314  -4.7276  -4.7276
    -4.5580  -4.5580   0.4549   0.4549   1.0092   1.0092   1.0654   1.0654
     1.3955   1.3955   2.0595   2.0595   2.6829   2.6829   3.1646   3.1646
     3.4058   3.4058   3.5717   3.5717   3.7531   3.7531   3.8478   3.8478
     4.3376   4.3376   6.4267   6.4267   6.5276   6.5276   6.8687   6.8687
     7.1674   7.1674

          k = 0.7622 0.0645 0.0000 ( 36505 PWs)   bands (ev):

   -44.1341 -44.1341 -22.2476 -22.2476 -22.2233 -22.2233 -22.0614 -22.0613
    -6.9933  -6.7436  -6.6558  -6.5282  -5.7541  -5.4187  -5.1939  -5.1220
    -4.5340  -4.5181  -0.0256   0.0138   0.4451   0.9879   1.0124   1.2921
     1.4484   1.5652   1.9514   2.1428   2.2623   2.2970   2.3620   2.7718
     2.9085   3.3115   3.3642   3.5180   3.5620   3.6415   3.6987   3.8231
     3.8296   4.5984   5.9716   6.3497   6.4336   6.8618   6.9259   6.9287
     7.3478   7.6510

          k = 0.7622 0.0645 0.1485 ( 36509 PWs)   bands (ev):

   -44.1341 -44.1341 -22.2476 -22.2476 -22.2233 -22.2233 -22.0613 -22.0613
    -6.9691  -6.8095  -6.6114  -6.5375  -5.7042  -5.4679  -5.1841  -5.1331
    -4.5288  -4.5179  -0.0217   0.1781   0.3230   0.8632   1.0103   1.2502
     1.4641   1.6154   1.9722   1.9919   2.0525   2.6216   2.6831   2.8619
     2.8779   3.0743   3.3211   3.3910   3.5588   3.6079   3.6561   3.9647
     3.9885   4.4958   5.7945   6.3529   6.6926   6.7932   6.9587   7.0155
     7.0856   7.6313

          k = 0.7622 0.0645-0.2971 ( 36472 PWs)   bands (ev):

   -44.1341 -44.1341 -22.2476 -22.2476 -22.2233 -22.2233 -22.0613 -22.0613
    -6.9020  -6.9020  -6.5650  -6.5650  -5.5857  -5.5857  -5.1591  -5.1591
    -4.5207  -4.5207   0.1107   0.1107   0.5089   0.5089   1.1044   1.1044
     1.5575   1.5575   1.9608   1.9608   2.3757   2.3757   2.8297   2.8297
     2.9664   2.9664   3.3619   3.3619   3.5945   3.5945   3.8992   3.8992
     4.0885   4.0885   6.2361   6.2361   6.4721   6.4721   6.9770   6.9770
     7.4979   7.4979

          k = 1.0162 0.1290 0.0000 ( 36514 PWs)   bands (ev):

   -44.1337 -44.1337 -22.2455 -22.2455 -22.2329 -22.2329 -22.0602 -22.0602
    -6.7255  -6.7052  -6.0649  -6.0541  -6.0216  -6.0152  -5.2887  -5.2882
    -4.4866  -4.4599  -0.0591  -0.0259   0.2591   0.2881   1.0044   1.0282
     1.4739   1.6572   2.2272   2.3939   2.4016   2.4198   2.7948   2.8049
     2.8165   2.8701   3.2201   3.2365   3.2976   3.3819   3.5183   3.6599
     3.8193   4.1353   6.5956   6.6059   6.6531   6.6839   7.0767   7.1535
     7.1594   7.1804

          k = 1.0162 0.1290 0.1485 ( 36524 PWs)   bands (ev):

   -44.1337 -44.1337 -22.2455 -22.2455 -22.2329 -22.2329 -22.0602 -22.0602
    -6.7215  -6.7071  -6.0888  -6.0812  -5.9962  -5.9917  -5.2863  -5.2859
    -4.4857  -4.4668  -0.1525  -0.1417   0.4763   0.4816   1.0086   1.0215
     1.4683   1.5886   2.0278   2.1077   2.3684   2.3936   2.6493   2.7338
     2.9446   3.0572   3.0809   3.1845   3.5246   3.5974   3.6344   3.7397
     4.0126   4.1878   6.0853   6.1208   6.5121   6.5943   7.1524   7.1648
     7.3690   7.4105

          k = 1.0162 0.1290-0.2971 ( 36516 PWs)   bands (ev):

   -44.1337 -44.1337 -22.2455 -22.2455 -22.2329 -22.2329 -22.0602 -22.0602
    -6.7131  -6.7131  -6.1011  -6.1011  -5.9790  -5.9790  -5.2837  -5.2837
    -4.4793  -4.4793  -0.2102  -0.2102   0.7037   0.7037   0.9604   0.9604
     1.5199   1.5199   1.8165   1.8165   2.3597   2.3597   2.7493   2.7493
     2.9182   2.9182   3.1533   3.1533   3.6387   3.6387   3.8019   3.8019
     4.3410   4.3410   5.6784   5.6784   6.4644   6.4644   7.1775   7.1775
     7.4772   7.4772

          k =-0.7622-0.3224 0.0000 ( 36511 PWs)   bands (ev):

   -44.1341 -44.1341 -22.2476 -22.2476 -22.2233 -22.2233 -22.0614 -22.0613
    -6.9737  -6.7504  -6.6527  -6.5443  -5.7540  -5.4255  -5.1925  -5.1240
    -4.5517  -4.4983  -0.0487   0.0224   0.4137   0.9476   1.0147   1.2613
     1.5039   1.6665   2.0511   2.0979   2.2442   2.3420   2.4529   2.8328
     2.9314   3.2131   3.3321   3.4633   3.5417   3.6353   3.6706   3.7701
     3.9050   4.5162   5.9780   6.3659   6.4555   6.7893   6.9323   7.0330
     7.3040   7.6003

          k =-0.7622-0.3224 0.1485 ( 36492 PWs)   bands (ev):

   -44.1341 -44.1341 -22.2476 -22.2476 -22.2233 -22.2233 -22.0613 -22.0613
    -6.9508  -6.8040  -6.6204  -6.5540  -5.7032  -5.4707  -5.1855  -5.1354
    -4.5411  -4.5040  -0.0395   0.1838   0.3010   0.8793   0.9606   1.2158
     1.5288   1.6238   1.9280   2.1508   2.2012   2.6023   2.6817   2.8872
     2.9151   3.0876   3.2157   3.3665   3.4746   3.5979   3.7222   3.8797
     3.9718   4.5045   5.7366   6.4098   6.6506   6.7885   6.9302   7.0445
     7.1403   7.5700

          k =-0.7622-0.3224-0.2971 ( 36508 PWs)   bands (ev):

   -44.1341 -44.1341 -22.2476 -22.2476 -22.2233 -22.2233 -22.0613 -22.0613
    -6.8877  -6.8877  -6.5809  -6.5809  -5.5847  -5.5847  -5.1621  -5.1621
    -4.5202  -4.5202   0.0915   0.0915   0.5257   0.5257   1.0570   1.0570
     1.5719   1.5719   2.0723   2.0723   2.4340   2.4340   2.8234   2.8234
     3.0071   3.0071   3.2255   3.2255   3.5951   3.5951   3.9040   3.9040
     4.0756   4.0756   6.1764   6.1764   6.4703   6.4703   7.0599   7.0599
     7.4224   7.4224

          k =-0.5081-0.2579 0.0000 ( 36480 PWs)   bands (ev):

   -44.1350 -44.1350 -22.2523 -22.2523 -22.2001 -22.2001 -22.0641 -22.0640
    -7.4716  -7.1793  -6.8956  -6.7262  -6.0120  -5.2594  -5.0470  -4.6778
    -4.6094  -4.4555   0.2948   0.5848   0.6531   1.1974   1.2196   1.4366
     1.6448   1.7210   1.9508   2.0867   2.1523   2.3294   2.4641   3.3949
     3.4148   3.4921   3.5556   3.6144   3.7444   3.7575   3.9726   4.1092
     4.3701   5.0125   5.6408   6.0645   6.1506   6.6931   6.7398   6.8925
     7.4117   7.5233

          k =-0.5081-0.2579 0.1485 ( 36485 PWs)   bands (ev):

   -44.1350 -44.1350 -22.2523 -22.2523 -22.2001 -22.2001 -22.0641 -22.0640
    -7.4423  -7.2477  -6.8471  -6.7396  -5.9371  -5.4649  -4.8897  -4.6486
    -4.6377  -4.4769   0.3272   0.6043   0.7534   0.9621   1.2406   1.3514
     1.5016   1.6272   2.0097   2.0763   2.3427   2.5116   2.8233   3.3284
     3.4327   3.4778   3.5402   3.5976   3.6198   3.7501   3.8636   4.1547
     4.2699   4.5096   6.1609   6.2070   6.3168   6.6975   6.7638   6.7758
     7.2407   7.4943

          k =-0.5081-0.2579-0.2971 ( 36478 PWs)   bands (ev):

   -44.1350 -44.1350 -22.2523 -22.2523 -22.2001 -22.2001 -22.0641 -22.0641
    -7.3599  -7.3599  -6.7804  -6.7804  -5.7351  -5.7351  -4.7403  -4.7403
    -4.5489  -4.5489   0.4610   0.4610   1.0031   1.0031   1.0481   1.0481
     1.5257   1.5257   2.0451   2.0451   2.7197   2.7197   3.1717   3.1717
     3.3830   3.3830   3.5126   3.5126   3.6908   3.6908   3.8567   3.8567
     4.2715   4.2715   6.3757   6.3757   6.6409   6.6409   6.8116   6.8116
     7.1718   7.1718

          k =-0.2541-0.1934 0.0000 ( 36410 PWs)   bands (ev):

   -44.1359 -44.1359 -22.2571 -22.2570 -22.1768 -22.1768 -22.0669 -22.0668
    -7.8207  -7.5177  -7.0549  -6.8477  -6.2002  -5.3700  -4.9076  -4.7887
    -4.7183  -3.9806   0.4199   0.8841   0.9835   1.1799   1.2753   1.4758
     1.7302   1.8517   1.8932   2.5426   2.5905   3.2548   3.2605   3.6718
     3.7078   3.7275   3.8027   3.8637   3.8996   4.1939   4.2891   4.3098
     4.3743   4.6030   5.9062   6.0108   6.2708   6.5711   6.6347   6.7297
     6.9990   7.1107

          k =-0.2541-0.1934 0.1485 ( 36427 PWs)   bands (ev):

   -44.1359 -44.1359 -22.2571 -22.2570 -22.1768 -22.1768 -22.0669 -22.0668
    -7.7894  -7.5850  -6.9994  -6.8640  -6.1241  -5.5949  -4.8107  -4.7335
    -4.6382  -4.0704   0.4773   0.9155   0.9485   1.0410   1.2301   1.3868
     1.7607   1.9699   2.2219   2.5404   2.5733   2.9408   3.3846   3.4158
     3.5572   3.6966   3.8089   3.9019   3.9916   4.1450   4.3079   4.3160
     4.6752   4.8162   5.8481   5.9800   6.1541   6.3271   6.4563   6.7584
     7.1777   7.2745

          k =-0.2541-0.1934-0.2971 ( 36422 PWs)   bands (ev):

   -44.1359 -44.1359 -22.2570 -22.2570 -22.1768 -22.1768 -22.0668 -22.0668
    -7.7020  -7.7020  -6.9156  -6.9156  -5.9057  -5.9057  -4.7689  -4.7689
    -4.3143  -4.3143   0.6534   0.6534   1.0824   1.0824   1.1596   1.1596
     2.0202   2.0202   2.4760   2.4760   2.6643   2.6643   3.2296   3.2296
     3.6359   3.6359   3.8279   3.8279   4.1044   4.1044   4.3190   4.3190
     5.0101   5.0101   5.7531   5.7531   6.1688   6.1688   6.5132   6.5132
     7.3786   7.3786

          k = 0.0000-0.1290 0.0000 ( 36417 PWs)   bands (ev):

   -44.1362 -44.1362 -22.2590 -22.2590 -22.1671 -22.1671 -22.0680 -22.0679
    -7.9434  -7.6340  -7.1251  -6.8935  -6.2568  -5.4159  -4.8796  -4.8302
    -4.7657  -3.8204   0.3280   0.7594   0.8285   1.1416   1.4217   1.5636
     2.1746   2.3081   2.4058   2.7670   2.9327   3.0104   3.3256   3.3620
     3.6925   3.8267   3.8824   4.0126   4.2786   4.2849   4.3356   4.6906
     4.7869   5.4244   5.6605   5.8765   5.9011   5.9732   6.1323   6.8154
     7.0120   7.2320

          k = 0.0000-0.1290 0.1485 ( 36419 PWs)   bands (ev):

   -44.1362 -44.1362 -22.2590 -22.2590 -22.1671 -22.1671 -22.0680 -22.0679
    -7.9115  -7.7025  -7.0638  -6.9116  -6.1831  -5.6472  -4.8318  -4.7782
    -4.6116  -3.9341   0.3980   0.8630   0.9123   0.9934   1.1092   1.8995
     2.0623   2.1990   2.3558   2.8080   2.9182   3.1067   3.3764   3.4434
     3.7196   3.8679   3.8858   3.9951   4.2095   4.3098   4.3535   4.6896
     4.7403   4.9519   5.8379   5.9443   5.9723   6.0762   6.4653   6.6312
     6.8314   7.1496

          k = 0.0000-0.1290-0.2971 ( 36464 PWs)   bands (ev):

   -44.1363 -44.1363 -22.2590 -22.2590 -22.1671 -22.1671 -22.0680 -22.0680
    -7.8222  -7.8222  -6.9695  -6.9695  -5.9655  -5.9655  -4.8045  -4.8045
    -4.2312  -4.2312   0.6213   0.6213   0.9650   0.9650   1.3560   1.3560
     2.2667   2.2667   2.6293   2.6293   2.8742   2.8742   3.5255   3.5255
     3.8465   3.8465   4.0407   4.0407   4.2498   4.2498   4.4046   4.4046
     4.6971   4.6971   5.9359   5.9359   6.2391   6.2391   6.4525   6.4525
     6.9244   6.9244

          k = 1.0162 0.0000 0.0000 ( 36499 PWs)   bands (ev):

   -44.1337 -44.1337 -22.2455 -22.2455 -22.2329 -22.2329 -22.0602 -22.0602
    -6.7255  -6.7052  -6.0647  -6.0543  -6.0216  -6.0152  -5.2887  -5.2882
    -4.4866  -4.4599  -0.0633  -0.0215   0.2563   0.2911   1.0006   1.0330
     1.4810   1.6468   2.2250   2.3974   2.3995   2.4166   2.7892   2.8029
     2.8137   2.8968   3.2339   3.2438   3.2643   3.3641   3.5869   3.6126
     3.8058   4.1485   6.5910   6.5981   6.6613   6.6907   7.1102   7.1523
     7.1544   7.1614

          k = 1.0162 0.0000 0.1485 ( 36485 PWs)   bands (ev):

   -44.1337 -44.1337 -22.2455 -22.2455 -22.2329 -22.2329 -22.0602 -22.0602
    -6.7215  -6.7070  -6.0887  -6.0813  -5.9962  -5.9917  -5.2863  -5.2858
    -4.4857  -4.4668  -0.1542  -0.1404   0.4789   0.4796   1.0099   1.0205
     1.4747   1.5822   2.0480   2.0821   2.3736   2.3854   2.6366   2.7509
     2.9589   3.0700   3.0719   3.1726   3.5112   3.6011   3.6558   3.7285
     3.9949   4.2034   6.0817   6.1283   6.5090   6.5967   7.1588   7.1623
     7.3880   7.3926

          k = 1.0162 0.0000-0.2971 ( 36514 PWs)   bands (ev):

   -44.1337 -44.1337 -22.2455 -22.2455 -22.2329 -22.2329 -22.0602 -22.0602
    -6.7131  -6.7131  -6.1011  -6.1011  -5.9790  -5.9790  -5.2837  -5.2837
    -4.4793  -4.4793  -0.2103  -0.2103   0.7041   0.7041   0.9603   0.9603
     1.5210   1.5210   1.8173   1.8173   2.3518   2.3518   2.7380   2.7380
     2.9557   2.9557   3.1322   3.1322   3.6414   3.6414   3.7996   3.7996
     4.3414   4.3414   5.6809   5.6809   6.4638   6.4638   7.1788   7.1788
     7.4782   7.4782

          k = 1.2703 0.0645 0.0000 ( 36468 PWs)   bands (ev):

   -44.1341 -44.1341 -22.2476 -22.2476 -22.2233 -22.2233 -22.0614 -22.0613
    -6.9647  -6.7543  -6.6514  -6.5508  -5.7540  -5.4284  -5.1918  -5.1249
    -4.5558  -4.4933  -0.0579   0.0262   0.4008   0.9293   1.0256   1.2502
     1.5074   1.7135   2.0824   2.1202   2.2624   2.3592   2.4305   2.8609
     2.9354   3.1735   3.3626   3.4996   3.5037   3.5840   3.6314   3.7213
     3.9923   4.4684   5.9807   6.3612   6.4890   6.7298   6.9652   7.0937
     7.2678   7.5946

          k = 1.2703 0.0645 0.1485 ( 36490 PWs)   bands (ev):

   -44.1341 -44.1341 -22.2476 -22.2476 -22.2233 -22.2233 -22.0613 -22.0613
    -6.9423  -6.8021  -6.6245  -6.5610  -5.7028  -5.4719  -5.1861  -5.1364
    -4.5439  -4.5005  -0.0469   0.1874   0.2910   0.8799   0.9524   1.2029
     1.5441   1.6335   1.9230   2.2217   2.2597   2.5962   2.6582   2.8972
     2.9274   3.1164   3.1804   3.3407   3.4656   3.5500   3.7621   3.8288
     3.9801   4.5061   5.7149   6.4397   6.6212   6.7854   6.9119   7.0971
     7.1510   7.5310

          k = 1.2703 0.0645-0.2971 ( 36480 PWs)   bands (ev):

   -44.1341 -44.1341 -22.2476 -22.2476 -22.2233 -22.2233 -22.0613 -22.0613
    -6.8813  -6.8813  -6.5879  -6.5879  -5.5843  -5.5843  -5.1633  -5.1633
    -4.5200  -4.5200   0.0838   0.0838   0.5322   0.5322   1.0417   1.0417
     1.5781   1.5781   2.1029   2.1029   2.4806   2.4806   2.8230   2.8230
     3.0249   3.0249   3.1635   3.1635   3.5903   3.5903   3.8838   3.8838
     4.0898   4.0898   6.1546   6.1546   6.4685   6.4685   7.1034   7.1035
     7.3797   7.3797

          k =-0.5081-0.3869 0.0000 ( 36463 PWs)   bands (ev):

   -44.1350 -44.1350 -22.2523 -22.2523 -22.2001 -22.2001 -22.0641 -22.0640
    -7.4630  -7.1779  -6.8953  -6.7325  -6.0204  -5.2595  -5.0537  -4.6833
    -4.6010  -4.4566   0.2829   0.5949   0.6482   1.2076   1.2389   1.5427
     1.6518   1.7322   1.9879   2.0678   2.1790   2.3344   2.4572   3.2831
     3.4399   3.4871   3.5117   3.6658   3.6794   3.7297   3.8970   4.1066
     4.3577   5.0204   5.6312   5.9749   6.2176   6.8018   6.8072   6.8666
     7.3432   7.5025

          k =-0.5081-0.3869 0.1485 ( 36477 PWs)   bands (ev):

   -44.1350 -44.1350 -22.2523 -22.2523 -22.2001 -22.2001 -22.0641 -22.0640
    -7.4340  -7.2435  -6.8505  -6.7463  -5.9433  -5.4657  -4.8991  -4.6456
    -4.6389  -4.4741   0.3208   0.6175   0.7476   0.9529   1.2488   1.3666
     1.6070   1.6993   1.9923   2.0572   2.3543   2.5392   2.8293   3.2300
     3.4392   3.4668   3.5056   3.5592   3.6254   3.7372   3.8520   4.1149
     4.2153   4.5245   6.1121   6.2356   6.2915   6.6889   6.8029   6.8976
     7.1700   7.4876

          k =-0.5081-0.3869-0.2971 ( 36492 PWs)   bands (ev):

   -44.1350 -44.1350 -22.2523 -22.2523 -22.2001 -22.2001 -22.0641 -22.0641
    -7.3531  -7.3531  -6.7870  -6.7870  -5.7377  -5.7377  -4.7487  -4.7487
    -4.5431  -4.5431   0.4649   0.4649   0.9972   0.9972   1.0414   1.0414
     1.6359   1.6359   2.0204   2.0204   2.7580   2.7580   3.1284   3.1284
     3.3669   3.3669   3.4719   3.4719   3.6822   3.6822   3.8570   3.8570
     4.2291   4.2291   6.3421   6.3421   6.6827   6.6827   6.7967   6.7967
     7.1939   7.1939

          k =-0.2541-0.3224 0.0000 ( 36485 PWs)   bands (ev):

   -44.1359 -44.1359 -22.2571 -22.2570 -22.1768 -22.1768 -22.0669 -22.0668
    -7.8124  -7.5163  -7.0483  -6.8537  -6.2183  -5.3732  -4.9213  -4.7911
    -4.7074  -3.9820   0.4455   0.8950   1.1025   1.1712   1.3239   1.5472
     1.7671   1.8796   1.9027   2.4717   2.5473   3.2330   3.3634   3.5138
     3.6016   3.6743   3.7351   3.8246   3.9420   4.1404   4.1628   4.2734
     4.3173   4.6254   5.9949   6.0420   6.3353   6.5778   6.6774   6.7776
     6.9225   7.0372

          k =-0.2541-0.3224 0.1485 ( 36445 PWs)   bands (ev):

   -44.1359 -44.1359 -22.2571 -22.2570 -22.1768 -22.1768 -22.0669 -22.0668
    -7.7816  -7.5811  -6.9975  -6.8699  -6.1387  -5.5988  -4.8306  -4.7277
    -4.6309  -4.0705   0.5007   0.9233   0.9642   1.1682   1.3020   1.4115
     1.7799   1.9740   2.2680   2.4748   2.5354   2.9347   3.3975   3.4695
     3.5120   3.5459   3.6598   3.8969   3.9192   4.0908   4.2216   4.2779
     4.6939   4.8051   5.8394   6.0132   6.1531   6.3696   6.5533   6.7532
     7.1409   7.2569

          k =-0.2541-0.3224-0.2971 ( 36442 PWs)   bands (ev):

   -44.1359 -44.1359 -22.2570 -22.2570 -22.1768 -22.1768 -22.0668 -22.0668
    -7.6954  -7.6954  -6.9195  -6.9195  -5.9137  -5.9137  -4.7751  -4.7751
    -4.3115  -4.3115   0.6711   0.6711   1.1303   1.1303   1.2334   1.2334
     2.0280   2.0280   2.4523   2.4523   2.6614   2.6614   3.2502   3.2502
     3.4958   3.4958   3.7985   3.7985   4.0515   4.0515   4.2573   4.2573
     5.0280   5.0280   5.7153   5.7153   6.1639   6.1639   6.6030   6.6030
     7.3609   7.3609

          k = 0.0000-0.2579 0.0000 ( 36445 PWs)   bands (ev):

   -44.1363 -44.1362 -22.2590 -22.2590 -22.1671 -22.1671 -22.0680 -22.0679
    -7.9361  -7.6327  -7.1168  -6.8991  -6.2764  -5.4203  -4.8986  -4.8298
    -4.7524  -3.8217   0.3632   0.7698   0.9386   1.1912   1.4479   1.6274
     2.1756   2.3080   2.4040   2.7847   2.9365   3.0288   3.3088   3.4311
     3.4820   3.6488   3.7995   3.9559   4.1562   4.2017   4.2789   4.6891
     4.7590   5.3810   5.7142   5.9197   5.9329   6.0513   6.2190   6.7963
     7.0121   7.1536

          k = 0.0000-0.2579 0.1485 ( 36452 PWs)   bands (ev):

   -44.1363 -44.1362 -22.2590 -22.2590 -22.1671 -22.1671 -22.0680 -22.0679
    -7.9045  -7.6991  -7.0599  -6.9167  -6.1993  -5.6523  -4.8506  -4.7710
    -4.6065  -3.9343   0.4311   0.9253   0.9644   1.0439   1.1609   1.9133
     2.1036   2.1999   2.3555   2.8226   2.9236   3.1088   3.3221   3.4268
     3.6398   3.6634   3.8605   3.9097   4.1849   4.2018   4.2316   4.6876
     4.7232   4.9439   5.8765   5.9950   6.0333   6.0897   6.4968   6.6157
     6.8337   7.0994

          k = 0.0000-0.2579-0.2971 ( 36454 PWs)   bands (ev):

   -44.1362 -44.1362 -22.2590 -22.2590 -22.1671 -22.1671 -22.0680 -22.0680
    -7.8163  -7.8163  -6.9718  -6.9718  -5.9751  -5.9751  -4.8097  -4.8097
    -4.2293  -4.2293   0.6557   0.6557   1.0490   1.0490   1.3725   1.3725
     2.2674   2.2674   2.6557   2.6557   2.8837   2.8837   3.4095   3.4095
     3.7761   3.7761   4.0216   4.0216   4.1198   4.1198   4.3788   4.3788
     4.6917   4.6917   5.9605   5.9605   6.2720   6.2720   6.4595   6.4595
     6.9021   6.9021

          k = 1.5243 0.0000 0.0000 ( 36439 PWs)   bands (ev):

   -44.1350 -44.1350 -22.2523 -22.2523 -22.2001 -22.2001 -22.0641 -22.0640
    -7.4593  -7.1773  -6.8955  -6.7349  -6.0240  -5.2596  -5.0564  -4.6850
    -4.5980  -4.4571   0.2780   0.6034   0.6403   1.2117   1.2495   1.6033
     1.6782   1.6948   2.0041   2.0617   2.2265   2.2997   2.4529   3.2408
     3.4402   3.4540   3.5190   3.6857   3.7016   3.7332   3.7981   4.1270
     4.3519   5.0225   5.6277   5.9369   6.2483   6.7711   6.8531   6.9246
     7.2992   7.5392

          k = 1.5243 0.0000 0.1485 ( 36476 PWs)   bands (ev):

   -44.1350 -44.1350 -22.2523 -22.2523 -22.2001 -22.2001 -22.0641 -22.0640
    -7.4306  -7.2418  -6.8521  -6.7490  -5.9459  -5.4659  -4.9030  -4.6445
    -4.6394  -4.4729   0.3182   0.6230   0.7443   0.9493   1.2537   1.3721
     1.6730   1.7178   1.9914   2.0360   2.3710   2.5349   2.8319   3.1913
     3.3991   3.4708   3.4928   3.5754   3.6506   3.7243   3.8159   4.1472
     4.1617   4.5304   6.0867   6.2497   6.2853   6.6590   6.8433   6.9669
     7.1236   7.5029

          k = 1.5243 0.0000-0.2971 ( 36508 PWs)   bands (ev):

   -44.1350 -44.1350 -22.2523 -22.2523 -22.2001 -22.2001 -22.0641 -22.0641
    -7.3501  -7.3501  -6.7898  -6.7898  -5.7387  -5.7387  -4.7520  -4.7520
    -4.5408  -4.5408   0.4664   0.4664   0.9948   0.9948   1.0393   1.0393
     1.6922   1.6922   2.0011   2.0011   2.7802   2.7802   3.0885   3.0885
     3.3675   3.3675   3.4619   3.4619   3.6797   3.6797   3.8545   3.8545
     4.2137   4.2137   6.3285   6.3285   6.6810   6.6810   6.8051   6.8051
     7.2107   7.2108

          k =-0.2541-0.4514 0.0000 ( 36444 PWs)   bands (ev):

   -44.1359 -44.1359 -22.2571 -22.2570 -22.1768 -22.1768 -22.0669 -22.0668
    -7.8065  -7.5153  -7.0443  -6.8570  -6.2315  -5.3754  -4.9312  -4.7902
    -4.7021  -3.9829   0.4567   0.9042   1.1633   1.2239   1.3384   1.6316
     1.7943   1.8879   1.9296   2.3942   2.4743   3.2315   3.3691   3.4438
     3.4846   3.7219   3.7424   3.8198   3.8733   4.1018   4.1106   4.2055
     4.3131   4.6398   6.0576   6.0690   6.3634   6.5834   6.7090   6.8115
     6.8328   7.0116

          k =-0.2541-0.4514 0.1485 ( 36461 PWs)   bands (ev):

   -44.1359 -44.1359 -22.2571 -22.2570 -22.1768 -22.1768 -22.0669 -22.0668
    -7.7759  -7.5783  -6.9967  -6.8735  -6.1492  -5.6015  -4.8429  -4.7248
    -4.6264  -4.0705   0.5107   0.9342   0.9676   1.2917   1.3469   1.4459
     1.8068   1.9761   2.3154   2.4011   2.4575   2.9444   3.3327   3.3719
     3.4806   3.5522   3.7308   3.8538   3.8921   3.9642   4.2081   4.2485
     4.7241   4.7840   5.8345   6.0362   6.1610   6.3649   6.6203   6.7407
     7.1309   7.2424

          k =-0.2541-0.4514-0.2971 ( 36490 PWs)   bands (ev):

   -44.1359 -44.1359 -22.2571 -22.2571 -22.1768 -22.1768 -22.0668 -22.0668
    -7.6907  -7.6907  -6.9223  -6.9223  -5.9193  -5.9193  -4.7795  -4.7795
    -4.3095  -4.3095   0.6784   0.6784   1.1430   1.1430   1.3328   1.3328
     2.0379   2.0379   2.4054   2.4054   2.6616   2.6616   3.2463   3.2463
     3.3874   3.3874   3.8391   3.8391   3.9823   3.9823   4.2271   4.2271
     5.0408   5.0408   5.6923   5.6923   6.1492   6.1492   6.6583   6.6583
     7.3518   7.3519

          k = 0.0000-0.3869 0.0000 ( 36477 PWs)   bands (ev):

   -44.1363 -44.1362 -22.2590 -22.2590 -22.1671 -22.1671 -22.0680 -22.0679
    -7.9286  -7.6315  -7.1091  -6.9035  -6.2968  -5.4246  -4.9171  -4.8240
    -4.7450  -3.8229   0.3860   0.7811   1.0885   1.2530   1.4724   1.6986
     2.1765   2.3099   2.4023   2.8037   2.9398   3.0614   3.1384   3.1909
     3.5615   3.5858   3.7717   3.9501   4.0078   4.0311   4.2791   4.6879
     4.7315   5.3556   5.7687   5.9385   6.0024   6.0998   6.2771   6.7261
     7.0121   7.1127

          k = 0.0000-0.3869 0.1485 ( 36452 PWs)   bands (ev):

   -44.1363 -44.1362 -22.2590 -22.2590 -22.1671 -22.1671 -22.0680 -22.0679
    -7.8973  -7.6956  -7.0567  -6.9210  -6.2159  -5.6573  -4.8665  -4.7664
    -4.6020  -3.9345   0.4505   0.9488   1.0193   1.1649   1.2387   1.9297
     2.1459   2.2009   2.3551   2.8383   2.9287   3.0318   3.1410   3.3323
     3.5414   3.7130   3.8348   3.9181   4.0529   4.0781   4.1936   4.6859
     4.7066   4.9419   5.9245   6.0364   6.0632   6.1036   6.5145   6.5717
     6.8361   7.0614

          k = 0.0000-0.3869-0.2971 ( 36454 PWs)   bands (ev):

   -44.1362 -44.1362 -22.2590 -22.2590 -22.1671 -22.1671 -22.0680 -22.0680
    -7.8103  -7.8103  -6.9743  -6.9743  -5.9846  -5.9846  -4.8150  -4.8150
    -4.2274  -4.2274   0.6734   0.6734   1.1743   1.1743   1.3904   1.3904
     2.2681   2.2681   2.6724   2.6724   2.8936   2.8936   3.1845   3.1845
     3.8173   3.8173   4.0020   4.0020   4.0034   4.0034   4.3523   4.3523
     4.6867   4.6867   5.9645   5.9645   6.2998   6.2998   6.4668   6.4668
     6.8702   6.8702

          k =-2.0325 0.0000 0.0000 ( 36452 PWs)   bands (ev):

   -44.1363 -44.1362 -22.2590 -22.2590 -22.1671 -22.1671 -22.0680 -22.0679
    -7.9254  -7.6309  -7.1062  -6.9049  -6.3054  -5.4263  -4.9243  -4.8209
    -4.7430  -3.8235   0.3918   0.7860   1.2111   1.2305   1.4821   1.7418
     2.1769   2.3116   2.4015   2.8121   2.9410   3.0176   3.0734   3.0800
     3.5579   3.7265   3.7600   3.8569   3.9496   3.9700   4.2791   4.6874
     4.7202   5.3479   5.7910   5.9463   6.0392   6.1149   6.2952   6.6791
     7.0121   7.1057

          k =-2.0325 0.0000 0.1485 ( 36456 PWs)   bands (ev):

   -44.1363 -44.1362 -22.2590 -22.2590 -22.1671 -22.1671 -22.0680 -22.0679
    -7.8943  -7.6941  -7.0555  -6.9226  -6.2228  -5.6593  -4.8725  -4.7648
    -4.6003  -3.9346   0.4548   0.9576   1.0356   1.2383   1.2786   1.9373
     2.1665   2.2012   2.3549   2.8452   2.9306   2.9507   3.0221   3.3345
     3.5185   3.7971   3.8239   3.9295   3.9573   4.0073   4.1899   4.6854
     4.6998   4.9419   5.9489   6.0541   6.0666   6.1095   6.5190   6.5436
     6.8371   7.0501

          k =-2.0325 0.0000-0.2971 ( 36460 PWs)   bands (ev):

   -44.1362 -44.1362 -22.2590 -22.2590 -22.1671 -22.1671 -22.0680 -22.0680
    -7.8078  -7.8078  -6.9753  -6.9753  -5.9885  -5.9885  -4.8172  -4.8172
    -4.2266  -4.2266   0.6771   0.6771   1.2409   1.2409   1.3985   1.3985
     2.2684   2.2684   2.6685   2.6685   2.8978   2.8978   3.0849   3.0849
     3.8760   3.8760   3.9248   3.9248   3.9937   3.9937   4.3429   4.3429
     4.6847   4.6847   5.9623   5.9623   6.3094   6.3094   6.4699   6.4699
     6.8558   6.8558

     the Fermi energy is     5.4802 ev

!    total energy              =   -4240.95302227 Ry

     total all-electron energy =   -150287.646717 Ry
     estimated scf accuracy    <          3.9E-12 Ry
     smearing contrib. (-TS)   =       0.00000251 Ry
     internal energy E=F+TS    =   -4240.95302478 Ry

     The total energy is F=E-TS. E is the sum of the following terms:
     one-electron contribution =    -167.33858817 Ry
     hartree contribution      =     117.14242053 Ry
     xc contribution           =    -201.52589098 Ry
     ewald contribution        =    -221.70680359 Ry
     one-center paw contrib.   =   -3767.52416257 Ry

     convergence has been achieved in  17 iterations

     Forces acting on atoms (cartesian axes, Ry/au):

     atom    1 type  1   force =     0.00000000    0.00435481    0.00000000
     atom    2 type  1   force =     0.00000000   -0.00435481    0.00000000
     atom    3 type  2   force =     0.00000000    0.00002766    0.00000000
     atom    4 type  2   force =     0.00000000   -0.00002766    0.00000000
     atom    5 type  2   force =     0.00000000   -0.00099452   -0.00031267
     atom    6 type  2   force =     0.00000000    0.00099452    0.00031267
     atom    7 type  2   force =     0.00000000   -0.00099452    0.00031267
     atom    8 type  2   force =     0.00000000    0.00099452   -0.00031267
     atom    9 type  2   force =    -0.00000000   -0.00693555   -0.00742504
     atom   10 type  2   force =    -0.00000000    0.00693555    0.00742504
     atom   11 type  2   force =     0.00000000   -0.00693555    0.00742504
     atom   12 type  2   force =     0.00000000    0.00693555   -0.00742504

     Total force =     0.021336     Total SCF correction =     0.000003


     Computing stress (Cartesian axis) and pressure

          total   stress  (Ry/bohr**3)                   (kbar)     P=        1.68
   0.00001034   0.00000000   0.00000000            1.52        0.00        0.00
   0.00000000   0.00000814   0.00000000            0.00        1.20        0.00
   0.00000000   0.00000000   0.00001570            0.00        0.00        2.31

 
     init_run     :     35.81s CPU     36.91s WALL (       1 calls)
     electrons    :   1651.20s CPU   1667.76s WALL (       1 calls)
     forces       :      7.27s CPU      7.49s WALL (       1 calls)
     stress       :     51.67s CPU     52.37s WALL (       1 calls)

     Called by init_run:
     wfcinit      :     30.84s CPU     31.11s WALL (       1 calls)
     potinit      :      1.54s CPU      1.59s WALL (       1 calls)
     hinit0       :      1.73s CPU      2.22s WALL (       1 calls)

     Called by electrons:
     c_bands      :   1328.94s CPU   1335.71s WALL (      18 calls)
     sum_band     :    289.41s CPU    294.90s WALL (      18 calls)
     v_of_rho     :      8.23s CPU      8.82s WALL (      18 calls)
     newd         :     17.91s CPU     21.87s WALL (      18 calls)
     PAW_pot      :      6.38s CPU      6.38s WALL (      18 calls)
     mix_rho      :      1.41s CPU      1.44s WALL (      18 calls)

     Called by c_bands:
     init_us_2    :     13.93s CPU     13.98s WALL (    2457 calls)
     cegterg      :   1251.71s CPU   1258.15s WALL (    1134 calls)

     Called by *egterg:
     cdiaghg      :     26.73s CPU     26.84s WALL (    7646 calls)
     h_psi        :   1085.31s CPU   1091.58s WALL (    7772 calls)
     s_psi        :     49.46s CPU     49.52s WALL (    7772 calls)
     g_psi        :      2.10s CPU      2.11s WALL (    6575 calls)

     Called by h_psi:
     h_psi:calbec :     41.44s CPU     41.51s WALL (    7772 calls)
     vloc_psi     :    990.76s CPU    996.82s WALL (    7772 calls)
     add_vuspsi   :     49.24s CPU     49.31s WALL (    7772 calls)

     General routines
     calbec       :     54.84s CPU     54.94s WALL (    9221 calls)
     fft          :      7.26s CPU      7.92s WALL (     258 calls)
     ffts         :      0.20s CPU      0.20s WALL (      36 calls)
     fftw         :    987.33s CPU    993.18s WALL (  402620 calls)
     interpolate  :      0.64s CPU      0.65s WALL (      18 calls)
 
     Parallel routines
     fft_scatt_xy :    273.20s CPU    274.80s WALL (  402914 calls)
     fft_scatt_yz :    161.61s CPU    162.91s WALL (  402914 calls)
 
     PWSCF        :  29m 6.32s CPU  29m31.85s WALL

 
   This run was terminated on:  15:15:49  19Nov2021            

=------------------------------------------------------------------------------=
   JOB DONE.
=------------------------------------------------------------------------------=
