
     Program PWSCF v.6.7MaX starts on 19Nov2021 at 14:45:56 

     This program is part of the open-source Quantum ESPRESSO suite
     for quantum simulation of materials; please cite
         "P. Giannozzi et al., J. Phys.:Condens. Matter 21 395502 (2009);
         "P. Giannozzi et al., J. Phys.:Condens. Matter 29 465901 (2017);
          URL http://www.quantum-espresso.org", 
     in publications or presentations arising from this work. More details at
     http://www.quantum-espresso.org/quote

     Parallel version (MPI), running on    10 processors

     MPI processes distributed on     1 nodes
     R & G space division:  proc/nbgrp/npool/nimage =      10
     Waiting for input...
     Reading input from standard input

     Current dimensions of program PWSCF are:
     Max number of different atomic species (ntypx) = 10
     Max number of k-points (npk) =  40000
     Max angular momentum in pseudopotentials (lmaxx) =  3
     file Zr.pbe-spn-kjpaw_psl.1.0.0.UPF: wavefunction(s)  4S 4P renormalized
     file Te.pbe-n-kjpaw_psl.1.0.0.UPF: wavefunction(s)  5S 5P renormalized

     Subspace diagonalization in iterative solution of the eigenvalue problem:
     a serial algorithm will be used

     Message from routine setup:
     using ibrav=0 with symmetry is DISCOURAGED, use correct ibrav instead
 
     Parallelization info
     --------------------
     sticks:   dense  smooth     PW     G-vecs:    dense   smooth      PW
     Min         734     293     87               115340    29174    4753
     Max         735     295     88               115345    29176    4760
     Sum        7345    2937    873              1153415   291749   47557
 


     bravais-lattice index     =            0
     lattice parameter (alat)  =      15.5510  a.u.
     unit-cell volume          =    3018.5011 (a.u.)^3
     number of atoms/cell      =           12
     number of atomic types    =            2
     number of electrons       =        84.00
     number of Kohn-Sham states=           50
     kinetic-energy cutoff     =      80.0000  Ry
     charge density cutoff     =     800.0000  Ry
     scf convergence threshold =      1.0E-10
     mixing beta               =       0.7000
     number of iterations used =            8  plain     mixing
     Exchange-correlation= SLA  PW   PBX  PBC
                           (   1   4   3   4   0   0   0)

     celldm(1)=  15.551040  celldm(2)=   0.000000  celldm(3)=   0.000000
     celldm(4)=   0.000000  celldm(5)=   0.000000  celldm(6)=   0.000000

     crystal axes: (cart. coord. in units of alat)
               a(1) = (   0.246007  -0.969268   0.000000 )  
               a(2) = (   0.246007   0.969268   0.000000 )  
               a(3) = (   0.000000   0.000000   1.683031 )  

     reciprocal axes: (cart. coord. in units 2 pi/alat)
               b(1) = (  2.032465 -0.515853  0.000000 )  
               b(2) = (  2.032465  0.515853  0.000000 )  
               b(3) = (  0.000000  0.000000  0.594166 )  


     PseudoPot. # 1 for Zr read from file:
     pseudo/Zr.pbe-spn-kjpaw_psl.1.0.0.UPF
     MD5 check sum: 02112c41713a0468aff2bb39ef194e36
     Pseudo is Projector augmented-wave + core cor, Zval = 12.0
     Generated using &quot;atomic&quot; code by A. Dal Corso  v.6.2.2
     Shape of augmentation charge: PSQ
     Using radial grid of 1225 points,  6 beta functions with: 
                l(1) =   0
                l(2) =   0
                l(3) =   1
                l(4) =   1
                l(5) =   2
                l(6) =   2
     Q(r) pseudized with 0 coefficients 


     PseudoPot. # 2 for Te read from file:
     pseudo/Te.pbe-n-kjpaw_psl.1.0.0.UPF
     MD5 check sum: 66247bff2bd9dbf220fbb0bf5ab56e9d
     Pseudo is Projector augmented-wave + core cor, Zval =  6.0
     Generated using &quot;atomic&quot; code by A. Dal Corso  v.6.3
     Shape of augmentation charge: PSQ
     Using radial grid of 1245 points,  6 beta functions with: 
                l(1) =   0
                l(2) =   0
                l(3) =   1
                l(4) =   1
                l(5) =   2
                l(6) =   2
     Q(r) pseudized with 0 coefficients 


     atomic species   valence    mass     pseudopotential
        Zr            12.00    91.22000     Zr( 1.00)
        Te             6.00   127.60000     Te( 1.00)

      8 Sym. Ops., with inversion, found ( 4 have fractional translation)



   Cartesian axes

     site n.     atom                  positions (alat units)
         1           Zr  tau(   1) = (   0.0000000   0.6052877   0.4207578  )
         2           Zr  tau(   2) = (   0.2460067   0.3639804   1.2622733  )
         3           Te  tau(   3) = (   0.2460067   0.3342420   0.4207578  )
         4           Te  tau(   4) = (   0.0000000   0.6350262   1.2622733  )
         5           Te  tau(   5) = (   0.2460067   0.8099713   0.2521627  )
         6           Te  tau(   6) = (   0.0000000   0.1592968   1.4308684  )
         7           Te  tau(   7) = (   0.2460067   0.8099713   0.5893528  )
         8           Te  tau(   8) = (   0.0000000   0.1592968   1.0936782  )
         9           Te  tau(   9) = (   0.0000000   0.4154520   0.7314168  )
        10           Te  tau(  10) = (   0.2460067   0.5538161   0.9516143  )
        11           Te  tau(  11) = (   0.0000000   0.4154520   0.1100987  )
        12           Te  tau(  12) = (   0.2460067   0.5538161   1.5729323  )

     number of k points=    63  Methfessel-Paxton smearing, width (Ry)=  0.0030
                       cart. coord. in units 2pi/alat
        k(    1) = (   0.0000000   0.0000000   0.0000000), wk =   0.0078125
        k(    2) = (   0.0000000   0.0000000   0.1485415), wk =   0.0156250
        k(    3) = (   0.0000000   0.0000000  -0.2970830), wk =   0.0078125
        k(    4) = (   0.2540581   0.0644816   0.0000000), wk =   0.0312500
        k(    5) = (   0.2540581   0.0644816   0.1485415), wk =   0.0625000
        k(    6) = (   0.2540581   0.0644816  -0.2970830), wk =   0.0312500
        k(    7) = (   0.5081162   0.1289633   0.0000000), wk =   0.0312500
        k(    8) = (   0.5081162   0.1289633   0.1485415), wk =   0.0625000
        k(    9) = (   0.5081162   0.1289633  -0.2970830), wk =   0.0312500
        k(   10) = (   0.7621743   0.1934449   0.0000000), wk =   0.0312500
        k(   11) = (   0.7621743   0.1934449   0.1485415), wk =   0.0625000
        k(   12) = (   0.7621743   0.1934449  -0.2970830), wk =   0.0312500
        k(   13) = (  -1.0162324  -0.2579266   0.0000000), wk =   0.0156250
        k(   14) = (  -1.0162324  -0.2579266   0.1485415), wk =   0.0312500
        k(   15) = (  -1.0162324  -0.2579266  -0.2970830), wk =   0.0156250
        k(   16) = (   0.5081162   0.0000000   0.0000000), wk =   0.0156250
        k(   17) = (   0.5081162   0.0000000   0.1485415), wk =   0.0312500
        k(   18) = (   0.5081162   0.0000000  -0.2970830), wk =   0.0156250
        k(   19) = (   0.7621743   0.0644816   0.0000000), wk =   0.0312500
        k(   20) = (   0.7621743   0.0644816   0.1485415), wk =   0.0625000
        k(   21) = (   0.7621743   0.0644816  -0.2970830), wk =   0.0312500
        k(   22) = (   1.0162324   0.1289633   0.0000000), wk =   0.0312500
        k(   23) = (   1.0162324   0.1289633   0.1485415), wk =   0.0625000
        k(   24) = (   1.0162324   0.1289633  -0.2970830), wk =   0.0312500
        k(   25) = (  -0.7621743  -0.3224082   0.0000000), wk =   0.0312500
        k(   26) = (  -0.7621743  -0.3224082   0.1485415), wk =   0.0625000
        k(   27) = (  -0.7621743  -0.3224082  -0.2970830), wk =   0.0312500
        k(   28) = (  -0.5081162  -0.2579266   0.0000000), wk =   0.0312500
        k(   29) = (  -0.5081162  -0.2579266   0.1485415), wk =   0.0625000
        k(   30) = (  -0.5081162  -0.2579266  -0.2970830), wk =   0.0312500
        k(   31) = (  -0.2540581  -0.1934449   0.0000000), wk =   0.0312500
        k(   32) = (  -0.2540581  -0.1934449   0.1485415), wk =   0.0625000
        k(   33) = (  -0.2540581  -0.1934449  -0.2970830), wk =   0.0312500
        k(   34) = (   0.0000000  -0.1289633   0.0000000), wk =   0.0156250
        k(   35) = (   0.0000000  -0.1289633   0.1485415), wk =   0.0312500
        k(   36) = (   0.0000000  -0.1289633  -0.2970830), wk =   0.0156250
        k(   37) = (   1.0162324   0.0000000   0.0000000), wk =   0.0156250
        k(   38) = (   1.0162324   0.0000000   0.1485415), wk =   0.0312500
        k(   39) = (   1.0162324   0.0000000  -0.2970830), wk =   0.0156250
        k(   40) = (   1.2702905   0.0644816   0.0000000), wk =   0.0312500
        k(   41) = (   1.2702905   0.0644816   0.1485415), wk =   0.0625000
        k(   42) = (   1.2702905   0.0644816  -0.2970830), wk =   0.0312500
        k(   43) = (  -0.5081162  -0.3868899   0.0000000), wk =   0.0312500
        k(   44) = (  -0.5081162  -0.3868899   0.1485415), wk =   0.0625000
        k(   45) = (  -0.5081162  -0.3868899  -0.2970830), wk =   0.0312500
        k(   46) = (  -0.2540581  -0.3224082   0.0000000), wk =   0.0312500
        k(   47) = (  -0.2540581  -0.3224082   0.1485415), wk =   0.0625000
        k(   48) = (  -0.2540581  -0.3224082  -0.2970830), wk =   0.0312500
        k(   49) = (   0.0000000  -0.2579266   0.0000000), wk =   0.0156250
        k(   50) = (   0.0000000  -0.2579266   0.1485415), wk =   0.0312500
        k(   51) = (   0.0000000  -0.2579266  -0.2970830), wk =   0.0156250
        k(   52) = (   1.5243485   0.0000000   0.0000000), wk =   0.0156250
        k(   53) = (   1.5243485   0.0000000   0.1485415), wk =   0.0312500
        k(   54) = (   1.5243485   0.0000000  -0.2970830), wk =   0.0156250
        k(   55) = (  -0.2540581  -0.4513715   0.0000000), wk =   0.0312500
        k(   56) = (  -0.2540581  -0.4513715   0.1485415), wk =   0.0625000
        k(   57) = (  -0.2540581  -0.4513715  -0.2970830), wk =   0.0312500
        k(   58) = (   0.0000000  -0.3868899   0.0000000), wk =   0.0156250
        k(   59) = (   0.0000000  -0.3868899   0.1485415), wk =   0.0312500
        k(   60) = (   0.0000000  -0.3868899  -0.2970830), wk =   0.0156250
        k(   61) = (  -2.0324647   0.0000000   0.0000000), wk =   0.0078125
        k(   62) = (  -2.0324647   0.0000000   0.1485415), wk =   0.0156250
        k(   63) = (  -2.0324647   0.0000000  -0.2970830), wk =   0.0078125

     Dense  grid:  1153415 G-vectors     FFT dimensions: ( 144, 144, 240)

     Smooth grid:   291749 G-vectors     FFT dimensions: (  90,  90, 150)

     Estimated max dynamical RAM per process >     657.19 MB

     Estimated total dynamical RAM >       6.42 GB

     Initial potential from superposition of free atoms

     starting charge   83.99353, renormalised to   84.00000
     Starting wfcs are   66 randomized atomic wfcs
     Checking if some PAW data can be deallocated... 

     total cpu time spent up to now is       35.9 secs

     Self-consistent Calculation

     iteration #  1     ecut=    80.00 Ry     beta= 0.70
     Davidson diagonalization with overlap
     ethr =  1.00E-02,  avg # of iterations =  2.1

     Threshold (ethr) on eigenvalues was too large:
     Diagonalizing with lowered threshold

     Davidson diagonalization with overlap
     ethr =  4.17E-04,  avg # of iterations =  4.0

     total cpu time spent up to now is      192.6 secs

     total energy              =   -4240.73139320 Ry
     estimated scf accuracy    <       0.43530615 Ry

     iteration #  2     ecut=    80.00 Ry     beta= 0.70
     Davidson diagonalization with overlap
     ethr =  5.18E-04,  avg # of iterations =  7.8

     total cpu time spent up to now is      303.3 secs

     total energy              =   -4240.63591754 Ry
     estimated scf accuracy    <       2.06616306 Ry

     iteration #  3     ecut=    80.00 Ry     beta= 0.70
     Davidson diagonalization with overlap
     ethr =  5.18E-04,  avg # of iterations =  5.2

     total cpu time spent up to now is      396.6 secs

     total energy              =   -4240.93825269 Ry
     estimated scf accuracy    <       0.01012782 Ry

     iteration #  4     ecut=    80.00 Ry     beta= 0.70
     Davidson diagonalization with overlap
     c_bands:  2 eigenvalues not converged
     c_bands:  1 eigenvalues not converged
     c_bands:  1 eigenvalues not converged
     c_bands:  2 eigenvalues not converged
     c_bands:  1 eigenvalues not converged
     c_bands:  4 eigenvalues not converged
     c_bands:  2 eigenvalues not converged
     c_bands:  1 eigenvalues not converged
     c_bands:  1 eigenvalues not converged
     c_bands:  2 eigenvalues not converged
     c_bands:  2 eigenvalues not converged
     c_bands:  1 eigenvalues not converged
     c_bands:  1 eigenvalues not converged
     c_bands:  1 eigenvalues not converged
     c_bands:  2 eigenvalues not converged
     c_bands:  1 eigenvalues not converged
     c_bands:  2 eigenvalues not converged
     c_bands:  2 eigenvalues not converged
     c_bands:  2 eigenvalues not converged
     c_bands:  1 eigenvalues not converged
     c_bands:  1 eigenvalues not converged
     c_bands:  1 eigenvalues not converged
     ethr =  1.21E-05,  avg # of iterations = 17.8

     total cpu time spent up to now is      574.8 secs

     total energy              =   -4240.95045822 Ry
     estimated scf accuracy    <       0.06372855 Ry

     iteration #  5     ecut=    80.00 Ry     beta= 0.70
     Davidson diagonalization with overlap
     ethr =  1.21E-05,  avg # of iterations =  7.2

     total cpu time spent up to now is      667.0 secs

     total energy              =   -4240.95225252 Ry
     estimated scf accuracy    <       0.01220840 Ry

     iteration #  6     ecut=    80.00 Ry     beta= 0.70
     Davidson diagonalization with overlap
     ethr =  1.21E-05,  avg # of iterations =  3.3

     total cpu time spent up to now is      742.8 secs

     total energy              =   -4240.95317139 Ry
     estimated scf accuracy    <       0.00142882 Ry

     iteration #  7     ecut=    80.00 Ry     beta= 0.70
     Davidson diagonalization with overlap
     c_bands:  2 eigenvalues not converged
     c_bands:  1 eigenvalues not converged
     ethr =  1.70E-06,  avg # of iterations = 11.1

     total cpu time spent up to now is      864.8 secs

     total energy              =   -4240.95389546 Ry
     estimated scf accuracy    <       0.00154585 Ry

     iteration #  8     ecut=    80.00 Ry     beta= 0.70
     Davidson diagonalization with overlap
     ethr =  1.70E-06,  avg # of iterations =  2.1

     total cpu time spent up to now is      933.7 secs

     total energy              =   -4240.95393407 Ry
     estimated scf accuracy    <       0.00023949 Ry

     iteration #  9     ecut=    80.00 Ry     beta= 0.70
     Davidson diagonalization with overlap
     ethr =  2.85E-07,  avg # of iterations =  6.3

     total cpu time spent up to now is     1023.1 secs

     total energy              =   -4240.95400999 Ry
     estimated scf accuracy    <       0.00002845 Ry

     iteration # 10     ecut=    80.00 Ry     beta= 0.70
     Davidson diagonalization with overlap
     ethr =  3.39E-08,  avg # of iterations =  3.5

     total cpu time spent up to now is     1097.0 secs

     total energy              =   -4240.95401289 Ry
     estimated scf accuracy    <       0.00000455 Ry

     iteration # 11     ecut=    80.00 Ry     beta= 0.70
     Davidson diagonalization with overlap
     ethr =  5.42E-09,  avg # of iterations =  6.2

     total cpu time spent up to now is     1191.5 secs

     total energy              =   -4240.95401518 Ry
     estimated scf accuracy    <       0.00000119 Ry

     iteration # 12     ecut=    80.00 Ry     beta= 0.70
     Davidson diagonalization with overlap
     ethr =  1.42E-09,  avg # of iterations =  2.4

     total cpu time spent up to now is     1261.5 secs

     total energy              =   -4240.95401526 Ry
     estimated scf accuracy    <       0.00000013 Ry

     iteration # 13     ecut=    80.00 Ry     beta= 0.70
     Davidson diagonalization with overlap
     ethr =  1.58E-10,  avg # of iterations =  7.7

     total cpu time spent up to now is     1366.7 secs

     total energy              =   -4240.95401534 Ry
     estimated scf accuracy    <       0.00000008 Ry

     iteration # 14     ecut=    80.00 Ry     beta= 0.70
     Davidson diagonalization with overlap
     ethr =  8.97E-11,  avg # of iterations =  1.9

     total cpu time spent up to now is     1434.5 secs

     total energy              =   -4240.95401533 Ry
     estimated scf accuracy    <       0.00000003 Ry

     iteration # 15     ecut=    80.00 Ry     beta= 0.70
     Davidson diagonalization with overlap
     ethr =  3.42E-11,  avg # of iterations =  5.6

     total cpu time spent up to now is     1517.2 secs

     total energy              =   -4240.95401534 Ry
     estimated scf accuracy    <          8.8E-10 Ry

     iteration # 16     ecut=    80.00 Ry     beta= 0.70
     Davidson diagonalization with overlap
     ethr =  1.05E-12,  avg # of iterations =  6.8

     total cpu time spent up to now is     1614.5 secs

     total energy              =   -4240.95401534 Ry
     estimated scf accuracy    <          8.5E-10 Ry

     iteration # 17     ecut=    80.00 Ry     beta= 0.70
     Davidson diagonalization with overlap
     ethr =  1.02E-12,  avg # of iterations =  2.9

     total cpu time spent up to now is     1686.8 secs

     End of self-consistent calculation

          k = 0.0000 0.0000 0.0000 ( 36359 PWs)   bands (ev):

   -44.1345 -44.1345 -22.2597 -22.2597 -22.1668 -22.1668 -22.0652 -22.0651
    -7.8854  -7.5350  -7.1296  -6.8712  -6.2919  -5.4111  -4.9134  -4.8355
    -4.7846  -3.8305   0.3322   0.7508   0.7748   1.1231   1.4406   1.5316
     2.2410   2.3275   2.5178   2.7446   2.9408   3.0097   3.2610   3.3970
     3.7094   3.8076   3.9815   4.0709   4.2562   4.3379   4.3654   4.6799
     4.8344   5.4814   5.6373   5.8455   5.8502   5.9394   6.1351   6.8249
     6.9941   7.2718

          k = 0.0000 0.0000 0.1485 ( 36415 PWs)   bands (ev):

   -44.1345 -44.1345 -22.2597 -22.2597 -22.1668 -22.1668 -22.0652 -22.0651
    -7.8515  -7.6199  -7.0531  -6.8891  -6.2162  -5.6594  -4.8344  -4.7930
    -4.6367  -3.9457   0.3994   0.8095   0.9014   1.0023   1.0814   1.9084
     2.0563   2.2675   2.4485   2.8024   2.9259   3.1124   3.3962   3.4031
     3.7115   3.8694   3.9617   4.0740   4.1929   4.3592   4.3825   4.6811
     4.7661   4.9804   5.8130   5.9412   5.9436   6.0394   6.4915   6.6331
     6.8149   7.1879

          k = 0.0000 0.0000-0.2971 ( 36410 PWs)   bands (ev):

   -44.1345 -44.1345 -22.2597 -22.2597 -22.1668 -22.1668 -22.0651 -22.0651
    -7.7550  -7.7550  -6.9483  -6.9483  -5.9909  -5.9909  -4.8133  -4.8133
    -4.2472  -4.2472   0.6166   0.6166   0.9298   0.9298   1.3563   1.3563
     2.3427   2.3427   2.6332   2.6332   2.8794   2.8794   3.5091   3.5091
     3.8968   3.8968   4.0282   4.0282   4.3469   4.3469   4.3913   4.3913
     4.6983   4.6983   5.9286   5.9286   6.2237   6.2237   6.4310   6.4310
     6.9704   6.9704

          k = 0.2541 0.0645 0.0000 ( 36396 PWs)   bands (ev):

   -44.1341 -44.1341 -22.2578 -22.2578 -22.1765 -22.1765 -22.0640 -22.0639
    -7.7667  -7.4212  -7.0594  -6.8234  -6.2304  -5.3657  -4.9326  -4.7923
    -4.7406  -3.9856   0.4179   0.8758   0.9034   1.2395   1.2435   1.4193
     1.7632   1.8453   1.9742   2.5692   2.5943   3.1726   3.3013   3.7250
     3.7523   3.7561   3.8167   3.8308   4.0304   4.2477   4.2958   4.3104
     4.4917   4.5730   5.8276   5.9785   6.2133   6.5849   6.5913   6.7379
     7.0147   7.1807

          k = 0.2541 0.0645 0.1485 ( 36423 PWs)   bands (ev):

   -44.1342 -44.1341 -22.2578 -22.2578 -22.1765 -22.1765 -22.0640 -22.0639
    -7.7334  -7.5058  -6.9877  -6.8395  -6.1528  -5.6059  -4.8078  -4.7509
    -4.6600  -4.0774   0.4732   0.9278   0.9385   0.9589   1.1890   1.4175
     1.7692   2.0534   2.2287   2.5545   2.5787   2.9514   3.3466   3.3593
     3.5591   3.7789   3.9343   3.9557   4.0323   4.1582   4.3338   4.3481
     4.6837   4.8430   5.8465   5.9374   6.1666   6.2609   6.4084   6.7451
     7.2219   7.2947

          k = 0.2541 0.0645-0.2971 ( 36436 PWs)   bands (ev):

   -44.1342 -44.1342 -22.2578 -22.2578 -22.1765 -22.1765 -22.0640 -22.0640
    -7.6387  -7.6387  -6.8927  -6.8927  -5.9281  -5.9281  -4.7762  -4.7762
    -4.3267  -4.3267   0.6492   0.6492   1.0299   1.0299   1.1626   1.1626
     2.0902   2.0902   2.4765   2.4765   2.6687   2.6687   3.1969   3.1969
     3.6359   3.6359   3.9466   3.9466   4.1141   4.1141   4.3563   4.3563
     5.0216   5.0216   5.7819   5.7819   6.1432   6.1432   6.4468   6.4468
     7.4034   7.4034

          k = 0.5081 0.1290 0.0000 ( 36499 PWs)   bands (ev):

   -44.1333 -44.1333 -22.2531 -22.2531 -22.1999 -22.1999 -22.0612 -22.0611
    -7.4257  -7.0898  -6.8932  -6.6990  -6.0429  -5.2616  -5.0534  -4.6802
    -4.6320  -4.4480   0.3771   0.5987   0.6381   1.1980   1.2289   1.3936
     1.6489   1.6971   1.9514   2.1038   2.1642   2.2619   2.4397   3.3827
     3.4701   3.5090   3.5465   3.5893   3.7725   3.8706   3.9336   4.1818
     4.4059   5.0427   5.6057   6.0632   6.1184   6.5906   6.6100   6.9584
     7.4489   7.5640

          k = 0.5081 0.1290 0.1485 ( 36476 PWs)   bands (ev):

   -44.1333 -44.1333 -22.2531 -22.2531 -22.1999 -22.1999 -22.0612 -22.0612
    -7.3945  -7.1790  -6.8268  -6.7116  -5.9653  -5.4769  -4.8869  -4.6620
    -4.6452  -4.4753   0.3888   0.6218   0.7571   0.9950   1.2530   1.3558
     1.4288   1.5632   2.0173   2.0957   2.3509   2.4552   2.8083   3.4034
     3.4227   3.4698   3.5234   3.5948   3.7156   3.7523   3.8502   4.2335
     4.3138   4.5018   6.1497   6.1874   6.3325   6.5920   6.6539   6.8236
     7.2883   7.5114

          k = 0.5081 0.1290-0.2971 ( 36466 PWs)   bands (ev):

   -44.1333 -44.1333 -22.2531 -22.2531 -22.1999 -22.1999 -22.0612 -22.0612
    -7.3059  -7.3059  -6.7523  -6.7523  -5.7562  -5.7562  -4.7400  -4.7400
    -4.5562  -4.5562   0.4983   0.4983   1.0212   1.0212   1.0850   1.0850
     1.4232   1.4232   2.0577   2.0577   2.7025   2.7025   3.1643   3.1643
     3.4009   3.4009   3.5563   3.5563   3.7163   3.7163   3.8400   3.8400
     4.3140   4.3140   6.3916   6.3916   6.5610   6.5610   6.8386   6.8386
     7.1496   7.1496

          k = 0.7622 0.1934 0.0000 ( 36521 PWs)   bands (ev):

   -44.1324 -44.1324 -22.2483 -22.2483 -22.2232 -22.2232 -22.0584 -22.0584
    -6.9510  -6.7405  -6.5766  -6.5024  -5.7719  -5.3996  -5.2073  -5.1135
    -4.5557  -4.5193   0.0129   0.0159   0.4819   1.0004   1.0231   1.2727
     1.4829   1.6032   1.9735   2.0936   2.2438   2.3449   2.4199   2.7918
     2.8998   3.2654   3.3418   3.4562   3.5823   3.6741   3.7136   3.8041
     3.8321   4.5651   5.9306   6.3387   6.3969   6.8519   6.8652   6.9501
     7.3160   7.6226

          k = 0.7622 0.1934 0.1485 ( 36503 PWs)   bands (ev):

   -44.1324 -44.1324 -22.2483 -22.2483 -22.2232 -22.2232 -22.0584 -22.0584
    -6.9278  -6.7845  -6.5580  -6.5097  -5.7163  -5.4559  -5.1917  -5.1265
    -4.5472  -4.5220   0.0022   0.1983   0.3586   0.8942   1.0002   1.2318
     1.4953   1.6224   1.9152   2.0576   2.1282   2.6189   2.6899   2.8558
     2.8919   3.0810   3.2713   3.3891   3.5264   3.6227   3.6612   3.9329
     3.9747   4.5199   5.7102   6.3568   6.6609   6.7629   6.9315   6.9856
     7.0933   7.5923

          k = 0.7622 0.1934-0.2971 ( 36522 PWs)   bands (ev):

   -44.1324 -44.1324 -22.2483 -22.2483 -22.2232 -22.2232 -22.0584 -22.0584
    -6.8647  -6.8647  -6.5300  -6.5300  -5.5861  -5.5861  -5.1582  -5.1582
    -4.5318  -4.5318   0.1384   0.1384   0.5391   0.5391   1.0827   1.0827
     1.5659   1.5659   2.0139   2.0139   2.3831   2.3831   2.8215   2.8215
     2.9871   2.9871   3.3171   3.3171   3.5960   3.5960   3.8930   3.8930
     4.0858   4.0858   6.1693   6.1693   6.4571   6.4571   6.9894   6.9894
     7.4443   7.4443

          k =-1.0162-0.2579 0.0000 ( 36506 PWs)   bands (ev):

   -44.1320 -44.1320 -22.2462 -22.2462 -22.2329 -22.2329 -22.0572 -22.0572
    -6.7176  -6.6975  -6.0164  -6.0054  -5.9664  -5.9594  -5.3194  -5.3187
    -4.4985  -4.4726  -0.0304  -0.0082   0.2895   0.3110   1.0118   1.0209
     1.4680   1.6687   2.2322   2.3915   2.4021   2.4165   2.8054   2.8073
     2.8154   2.8365   3.2091   3.2591   3.3195   3.4071   3.4883   3.7000
     3.8002   4.0936   6.5752   6.5808   6.5977   6.6579   7.0366   7.1339
     7.1395   7.1682

          k =-1.0162-0.2579 0.1485 ( 36506 PWs)   bands (ev):

   -44.1320 -44.1320 -22.2462 -22.2462 -22.2329 -22.2329 -22.0572 -22.0572
    -6.7137  -6.6994  -6.0385  -6.0306  -5.9429  -5.9380  -5.3164  -5.3161
    -4.4980  -4.4797  -0.1277  -0.1209   0.5068   0.5140   1.0092   1.0254
     1.4637   1.5948   1.9991   2.1024   2.3722   2.3981   2.6964   2.6992
     2.9387   3.0362   3.0973   3.1936   3.5554   3.5718   3.6433   3.7531
     4.0287   4.1514   6.0482   6.0653   6.4976   6.5736   7.1203   7.1415
     7.3389   7.3917

          k =-1.0162-0.2579-0.2971 ( 36528 PWs)   bands (ev):

   -44.1320 -44.1320 -22.2462 -22.2462 -22.2329 -22.2329 -22.0572 -22.0572
    -6.7055  -6.7055  -6.0501  -6.0501  -5.9260  -5.9260  -5.3134  -5.3134
    -4.4921  -4.4921  -0.1876  -0.1876   0.7522   0.7522   0.9553   0.9553
     1.5245   1.5245   1.7787   1.7787   2.3722   2.3722   2.7683   2.7683
     2.8944   2.8944   3.1659   3.1659   3.6347   3.6347   3.8050   3.8050
     4.3613   4.3613   5.6132   5.6132   6.4495   6.4495   7.1521   7.1521
     7.4476   7.4477

          k = 0.5081 0.0000 0.0000 ( 36503 PWs)   bands (ev):

   -44.1333 -44.1333 -22.2531 -22.2531 -22.1999 -22.1999 -22.0612 -22.0611
    -7.4295  -7.0905  -6.8941  -6.6952  -6.0394  -5.2617  -5.0506  -4.6745
    -4.6389  -4.4476   0.3826   0.6097   0.6214   1.1934   1.2189   1.3642
     1.6475   1.6939   1.9375   2.1102   2.1716   2.2353   2.4392   3.3734
     3.4934   3.5102   3.5760   3.5788   3.7797   3.9180   3.9253   4.2191
     4.4080   5.0382   5.6115   6.0405   6.1544   6.5523   6.5584   6.9943
     7.4629   7.5796

          k = 0.5081 0.0000 0.1485 ( 36453 PWs)   bands (ev):

   -44.1333 -44.1333 -22.2531 -22.2531 -22.1999 -22.1999 -22.0612 -22.0612
    -7.3982  -7.1811  -6.8255  -6.7079  -5.9628  -5.4767  -4.8825  -4.6636
    -4.6448  -4.4765   0.3912   0.6165   0.7579   0.9983   1.2503   1.3493
     1.3969   1.5424   2.0147   2.1056   2.3822   2.4008   2.8049   3.3975
     3.4651   3.4833   3.4898   3.6042   3.7077   3.8236   3.8370   4.2747
     4.3246   4.4937   6.1426   6.1971   6.3510   6.5442   6.6169   6.8558
     7.3083   7.5207

          k = 0.5081 0.0000-0.2971 ( 36452 PWs)   bands (ev):

   -44.1333 -44.1333 -22.2531 -22.2531 -22.1999 -22.1999 -22.0612 -22.0612
    -7.3091  -7.3091  -6.7491  -6.7491  -5.7552  -5.7552  -4.7361  -4.7361
    -4.5590  -4.5590   0.4960   0.4960   1.0222   1.0222   1.0936   1.0936
     1.3855   1.3855   2.0601   2.0601   2.6933   2.6933   3.1556   3.1556
     3.4044   3.4044   3.5709   3.5709   3.7445   3.7445   3.8383   3.8383
     4.3343   4.3343   6.4073   6.4073   6.5249   6.5249   6.8562   6.8562
     7.1506   7.1506

          k = 0.7622 0.0645 0.0000 ( 36505 PWs)   bands (ev):

   -44.1324 -44.1324 -22.2483 -22.2483 -22.2232 -22.2232 -22.0584 -22.0584
    -6.9593  -6.7382  -6.5780  -6.4950  -5.7719  -5.3965  -5.2080  -5.1127
    -4.5461  -4.5298   0.0121   0.0229   0.4964   1.0116   1.0321   1.2866
     1.4463   1.5653   1.9429   2.1128   2.2611   2.3257   2.3575   2.7667
     2.8884   3.3138   3.3612   3.4955   3.5900   3.6353   3.7025   3.8285
     3.8476   4.5976   5.9281   6.3282   6.3950   6.8371   6.9089   6.9093
     7.3312   7.6403

          k = 0.7622 0.0645 0.1485 ( 36509 PWs)   bands (ev):

   -44.1324 -44.1324 -22.2483 -22.2483 -22.2232 -22.2232 -22.0584 -22.0584
    -6.9356  -6.7863  -6.5550  -6.5024  -5.7167  -5.4549  -5.1909  -5.1255
    -4.5405  -4.5294   0.0082   0.1975   0.3677   0.8889   1.0228   1.2469
     1.4629   1.6217   1.9454   1.9910   2.0559   2.6322   2.6788   2.8452
     2.8723   3.0844   3.3241   3.3960   3.5489   3.6112   3.6536   3.9614
     3.9943   4.5164   5.7353   6.3355   6.6730   6.7635   6.9375   6.9922
     7.0670   7.6118

          k = 0.7622 0.0645-0.2971 ( 36472 PWs)   bands (ev):

   -44.1324 -44.1324 -22.2483 -22.2483 -22.2232 -22.2232 -22.0584 -22.0584
    -6.8706  -6.8706  -6.5234  -6.5234  -5.5866  -5.5866  -5.1568  -5.1568
    -4.5321  -4.5321   0.1461   0.1461   0.5321   0.5321   1.1051   1.1051
     1.5596   1.5596   1.9630   1.9630   2.3623   2.3623   2.8237   2.8237
     2.9722   2.9722   3.3752   3.3752   3.5932   3.5932   3.8799   3.8799
     4.1030   4.1030   6.1950   6.1950   6.4575   6.4575   6.9574   6.9574
     7.4719   7.4719

          k = 1.0162 0.1290 0.0000 ( 36514 PWs)   bands (ev):

   -44.1320 -44.1320 -22.2462 -22.2462 -22.2329 -22.2329 -22.0572 -22.0572
    -6.7176  -6.6975  -6.0162  -6.0056  -5.9664  -5.9594  -5.3193  -5.3187
    -4.4985  -4.4726  -0.0363  -0.0023   0.2856   0.3151   1.0052   1.0286
     1.4741   1.6593   2.2309   2.3928   2.3971   2.4159   2.7987   2.8044
     2.8091   2.8704   3.2272   3.2417   3.2999   3.3951   3.5314   3.6795
     3.7855   4.1076   6.5637   6.5757   6.6097   6.6648   7.0561   7.1348
     7.1416   7.1542

          k = 1.0162 0.1290 0.1485 ( 36524 PWs)   bands (ev):

   -44.1320 -44.1320 -22.2462 -22.2462 -22.2329 -22.2329 -22.0572 -22.0572
    -6.7137  -6.6994  -6.0384  -6.0307  -5.9428  -5.9380  -5.3165  -5.3160
    -4.4980  -4.4797  -0.1300  -0.1190   0.5081   0.5132   1.0109   1.0240
     1.4692   1.5893   2.0111   2.0856   2.3723   2.3934   2.6570   2.7453
     2.9498   3.0477   3.0889   3.1843   3.5273   3.6062   3.6446   3.7447
     4.0080   4.1709   6.0411   6.0762   6.4944   6.5762   7.1254   7.1407
     7.3469   7.3845

          k = 1.0162 0.1290-0.2971 ( 36516 PWs)   bands (ev):

   -44.1320 -44.1320 -22.2462 -22.2462 -22.2329 -22.2329 -22.0572 -22.0572
    -6.7055  -6.7055  -6.0501  -6.0501  -5.9260  -5.9260  -5.3134  -5.3134
    -4.4921  -4.4921  -0.1877  -0.1877   0.7526   0.7526   0.9552   0.9552
     1.5255   1.5255   1.7795   1.7795   2.3636   2.3636   2.7521   2.7521
     2.9358   2.9358   3.1464   3.1464   3.6377   3.6377   3.8020   3.8020
     4.3618   4.3618   5.6156   5.6156   6.4489   6.4489   7.1535   7.1535
     7.4485   7.4485

          k =-0.7622-0.3224 0.0000 ( 36511 PWs)   bands (ev):

   -44.1324 -44.1324 -22.2483 -22.2483 -22.2232 -22.2232 -22.0584 -22.0584
    -6.9384  -6.7448  -6.5746  -6.5128  -5.7720  -5.4039  -5.2064  -5.1146
    -4.5632  -4.5105  -0.0009   0.0215   0.4615   0.9679   1.0392   1.2554
     1.5039   1.6667   2.0363   2.0698   2.2576   2.3706   2.4495   2.8281
     2.9123   3.2095   3.3262   3.4536   3.5603   3.6458   3.6675   3.7915
     3.8849   4.5100   5.9342   6.3322   6.4324   6.7697   6.9084   7.0162
     7.2846   7.5996

          k =-0.7622-0.3224 0.1485 ( 36492 PWs)   bands (ev):

   -44.1324 -44.1324 -22.2483 -22.2483 -22.2232 -22.2232 -22.0584 -22.0584
    -6.9160  -6.7824  -6.5623  -6.5204  -5.7157  -5.4574  -5.1929  -5.1278
    -4.5524  -4.5158  -0.0068   0.2007   0.3451   0.8951   0.9834   1.2116
     1.5302   1.6275   1.8974   2.1589   2.2084   2.6059   2.6871   2.8740
     2.9089   3.0985   3.2103   3.3724   3.4752   3.6024   3.7085   3.8808
     3.9591   4.5233   5.6767   6.3910   6.6333   6.7601   6.9005   7.0296
     7.1217   7.5534

          k =-0.7622-0.3224-0.2971 ( 36508 PWs)   bands (ev):

   -44.1324 -44.1324 -22.2483 -22.2483 -22.2232 -22.2232 -22.0584 -22.0584
    -6.8559  -6.8559  -6.5397  -6.5397  -5.5853  -5.5853  -5.1601  -5.1601
    -4.5315  -4.5315   0.1277   0.1277   0.5485   0.5485   1.0564   1.0564
     1.5743   1.5743   2.0716   2.0716   2.4311   2.4311   2.8193   2.8193
     3.0091   3.0091   3.2346   3.2346   3.5942   3.5942   3.8927   3.8927
     4.0766   4.0766   6.1360   6.1360   6.4551   6.4551   7.0421   7.0421
     7.3971   7.3971

          k =-0.5081-0.2579 0.0000 ( 36480 PWs)   bands (ev):

   -44.1333 -44.1333 -22.2531 -22.2531 -22.1999 -22.1999 -22.0612 -22.0611
    -7.4163  -7.0883  -6.8917  -6.7076  -6.0515  -5.2615  -5.0603  -4.6887
    -4.6206  -4.4492   0.3642   0.5960   0.6505   1.2090   1.2633   1.4652
     1.6502   1.7139   1.9864   2.0876   2.1581   2.3069   2.4385   3.3922
     3.4035   3.4729   3.5507   3.5878   3.7510   3.7665   3.9545   4.1037
     4.3970   5.0515   5.5940   6.0255   6.1270   6.6887   6.7316   6.8732
     7.4035   7.5290

          k =-0.5081-0.2579 0.1485 ( 36485 PWs)   bands (ev):

   -44.1333 -44.1333 -22.2531 -22.2531 -22.1999 -22.1999 -22.0612 -22.0612
    -7.3855  -7.1738  -6.8303  -6.7204  -5.9715  -5.4773  -4.8972  -4.6585
    -4.6462  -4.4726   0.3831   0.6340   0.7536   0.9873   1.2667   1.3679
     1.5092   1.6231   2.0151   2.0788   2.3351   2.5198   2.8161   3.3307
     3.4221   3.4639   3.5506   3.5759   3.6151   3.7389   3.8529   4.1521
     4.2760   4.5165   6.1377   6.1878   6.2941   6.6940   6.7496   6.7607
     7.2334   7.4922

          k =-0.5081-0.2579-0.2971 ( 36478 PWs)   bands (ev):

   -44.1333 -44.1333 -22.2531 -22.2531 -22.1999 -22.1999 -22.0612 -22.0612
    -7.2980  -7.2980  -6.7602  -6.7602  -5.7584  -5.7584  -4.7490  -4.7490
    -4.5498  -4.5498   0.5036   0.5036   1.0178   1.0178   1.0704   1.0704
     1.5175   1.5175   2.0475   2.0475   2.7292   2.7292   3.1737   3.1737
     3.3847   3.3847   3.4985   3.4985   3.6882   3.6882   3.8402   3.8402
     4.2657   4.2657   6.3554   6.3554   6.6379   6.6379   6.8006   6.8006
     7.1544   7.1545

          k =-0.2541-0.1934 0.0000 ( 36410 PWs)   bands (ev):

   -44.1341 -44.1341 -22.2578 -22.2578 -22.1765 -22.1765 -22.0640 -22.0639
    -7.7602  -7.4201  -7.0538  -6.8296  -6.2432  -5.3675  -4.9410  -4.7998
    -4.7286  -3.9866   0.4433   0.8827   0.9726   1.2395   1.2679   1.4536
     1.7873   1.8696   1.9755   2.5366   2.5843   3.2353   3.2727   3.6621
     3.6939   3.7290   3.7851   3.8635   3.8910   4.1958   4.2708   4.2927
     4.3845   4.6002   5.8829   6.0081   6.2798   6.5835   6.6363   6.7557
     6.9959   7.0999

          k =-0.2541-0.1934 0.1485 ( 36427 PWs)   bands (ev):

   -44.1342 -44.1342 -22.2578 -22.2578 -22.1765 -22.1765 -22.0640 -22.0639
    -7.7272  -7.5023  -6.9865  -6.8454  -6.1630  -5.6083  -4.8259  -4.7441
    -4.6537  -4.0774   0.4968   0.9300   0.9560   1.0369   1.2228   1.4322
     1.7763   2.0565   2.2575   2.5337   2.5654   2.9363   3.3682   3.3998
     3.5687   3.6763   3.7953   3.9000   3.9859   4.1342   4.2904   4.2998
     4.6756   4.8412   5.8362   5.9609   6.1612   6.3308   6.4765   6.7463
     7.1818   7.2839

          k =-0.2541-0.1934-0.2971 ( 36422 PWs)   bands (ev):

   -44.1342 -44.1342 -22.2578 -22.2578 -22.1765 -22.1765 -22.0640 -22.0640
    -7.6334  -7.6334  -6.8965  -6.8965  -5.9334  -5.9334  -4.7808  -4.7808
    -4.3245  -4.3245   0.6681   0.6681   1.0866   1.0866   1.1737   1.1737
     2.0927   2.0927   2.4714   2.4714   2.6680   2.6680   3.2141   3.2141
     3.6185   3.6185   3.8232   3.8232   4.0934   4.0934   4.3031   4.3031
     5.0326   5.0326   5.7455   5.7455   6.1586   6.1586   6.5174   6.5174
     7.3863   7.3863

          k = 0.0000-0.1290 0.0000 ( 36417 PWs)   bands (ev):

   -44.1345 -44.1345 -22.2597 -22.2597 -22.1668 -22.1668 -22.0652 -22.0651
    -7.8820  -7.5344  -7.1258  -6.8745  -6.3001  -5.4127  -4.9187  -4.8412
    -4.7759  -3.8310   0.3509   0.7551   0.8159   1.1326   1.4518   1.5600
     2.2418   2.3275   2.5170   2.7517   2.9418   3.0142   3.2991   3.3879
     3.6604   3.7965   3.8619   4.0129   4.2564   4.2835   4.3176   4.6795
     4.8232   5.4488   5.6600   5.8578   5.8661   5.9884   6.1835   6.8223
     6.9943   7.2352

          k = 0.0000-0.1290 0.1485 ( 36419 PWs)   bands (ev):

   -44.1345 -44.1345 -22.2597 -22.2597 -22.1668 -22.1668 -22.0652 -22.0651
    -7.8482  -7.6181  -7.0516  -6.8921  -6.2229  -5.6613  -4.8447  -4.7882
    -4.6341  -3.9458   0.4174   0.8514   0.9106   1.0071   1.1016   1.9139
     2.0736   2.2683   2.4488   2.8076   2.9274   3.1202   3.3714   3.4274
     3.7023   3.8505   3.8592   3.9933   4.1902   4.3062   4.3372   4.6804
     4.7593   4.9719   5.8252   5.9596   5.9874   6.0446   6.5115   6.6310
     6.8158   7.1685

          k = 0.0000-0.1290-0.2971 ( 36464 PWs)   bands (ev):

   -44.1345 -44.1345 -22.2597 -22.2597 -22.1668 -22.1668 -22.0651 -22.0651
    -7.7522  -7.7522  -6.9498  -6.9498  -5.9946  -5.9946  -4.8157  -4.8157
    -4.2464  -4.2464   0.6368   0.6368   0.9537   0.9537   1.3631   1.3631
     2.3435   2.3435   2.6445   2.6445   2.8825   2.8825   3.4990   3.4990
     3.8398   3.8398   4.0208   4.0208   4.2515   4.2515   4.4055   4.4055
     4.6962   4.6962   5.9445   5.9445   6.2394   6.2394   6.4336   6.4336
     6.9675   6.9675

          k = 1.0162 0.0000 0.0000 ( 36499 PWs)   bands (ev):

   -44.1320 -44.1320 -22.2462 -22.2462 -22.2329 -22.2329 -22.0572 -22.0572
    -6.7176  -6.6975  -6.0160  -6.0058  -5.9664  -5.9593  -5.3193  -5.3187
    -4.4985  -4.4726  -0.0405   0.0021   0.2825   0.3182   1.0016   1.0333
     1.4810   1.6491   2.2294   2.3928   2.3943   2.4150   2.7948   2.8019
     2.8080   2.8948   3.2489   3.2496   3.2594   3.3783   3.5918   3.6384
     3.7725   4.1204   6.5565   6.5711   6.6174   6.6712   7.0862   7.1298
     7.1359   7.1437

          k = 1.0162 0.0000 0.1485 ( 36485 PWs)   bands (ev):

   -44.1320 -44.1320 -22.2462 -22.2462 -22.2329 -22.2329 -22.0572 -22.0572
    -6.7137  -6.6994  -6.0383  -6.0308  -5.9428  -5.9381  -5.3165  -5.3160
    -4.4979  -4.4797  -0.1316  -0.1177   0.5107   0.5112   1.0133   1.0220
     1.4753   1.5832   2.0340   2.0580   2.3778   2.3834   2.6436   2.7629
     2.9680   3.0658   3.0703   3.1739   3.5151   3.6161   3.6586   3.7323
     3.9912   4.1863   6.0372   6.0837   6.4914   6.5787   7.1324   7.1379
     7.3633   7.3689

          k = 1.0162 0.0000-0.2971 ( 36514 PWs)   bands (ev):

   -44.1320 -44.1320 -22.2462 -22.2462 -22.2329 -22.2329 -22.0572 -22.0572
    -6.7055  -6.7055  -6.0501  -6.0501  -5.9260  -5.9260  -5.3134  -5.3134
    -4.4921  -4.4921  -0.1879  -0.1879   0.7531   0.7531   0.9550   0.9550
     1.5266   1.5266   1.7803   1.7803   2.3551   2.3551   2.7410   2.7410
     2.9794   2.9794   3.1196   3.1196   3.6408   3.6408   3.7990   3.7990
     4.3623   4.3623   5.6180   5.6180   6.4483   6.4483   7.1550   7.1550
     7.4493   7.4493

          k = 1.2703 0.0645 0.0000 ( 36468 PWs)   bands (ev):

   -44.1324 -44.1323 -22.2483 -22.2483 -22.2232 -22.2232 -22.0584 -22.0584
    -6.9285  -6.7488  -6.5732  -6.5201  -5.7722  -5.4070  -5.2058  -5.1154
    -4.5672  -4.5057  -0.0105   0.0256   0.4473   0.9504   1.0505   1.2441
     1.5079   1.7130   2.0546   2.0998   2.2822   2.3884   2.4329   2.8558
     2.9168   3.1648   3.3542   3.4954   3.5145   3.5775   3.6500   3.7416
     3.9691   4.4599   5.9369   6.3272   6.4669   6.7103   6.9419   7.0759
     7.2485   7.5958

          k = 1.2703 0.0645 0.1485 ( 36490 PWs)   bands (ev):

   -44.1324 -44.1324 -22.2483 -22.2483 -22.2232 -22.2232 -22.0584 -22.0584
    -6.9069  -6.7815  -6.5655  -6.5281  -5.7153  -5.4585  -5.1937  -5.1288
    -4.5550  -4.5124  -0.0133   0.2033   0.3350   0.8902   0.9811   1.1983
     1.5475   1.6350   1.8914   2.2322   2.2699   2.5948   2.6721   2.8833
     2.9223   3.1266   3.1710   3.3505   3.4584   3.5547   3.7601   3.8258
     3.9573   4.5245   5.6547   6.4202   6.6039   6.7575   6.8839   7.0791
     7.1341   7.5171

          k = 1.2703 0.0645-0.2971 ( 36480 PWs)   bands (ev):

   -44.1324 -44.1324 -22.2483 -22.2483 -22.2232 -22.2232 -22.0584 -22.0584
    -6.8494  -6.8494  -6.5470  -6.5470  -5.5847  -5.5847  -5.1615  -5.1615
    -4.5312  -4.5312   0.1203   0.1203   0.5548   0.5548   1.0408   1.0408
     1.5803   1.5803   2.1006   2.1006   2.4829   2.4829   2.8205   2.8205
     3.0251   3.0251   3.1697   3.1697   3.5903   3.5903   3.8777   3.8777
     4.0826   4.0826   6.1142   6.1142   6.4531   6.4531   7.0873   7.0873
     7.3547   7.3548

          k =-0.5081-0.3869 0.0000 ( 36463 PWs)   bands (ev):

   -44.1333 -44.1332 -22.2531 -22.2531 -22.1999 -22.1999 -22.0612 -22.0611
    -7.4065  -7.0867  -6.8911  -6.7155  -6.0604  -5.2612  -5.0672  -4.6940
    -4.6123  -4.4503   0.3519   0.6062   0.6443   1.2194   1.3100   1.5504
     1.6537   1.7227   2.0243   2.0701   2.1840   2.3141   2.4330   3.2783
     3.4274   3.4718   3.4956   3.6418   3.6950   3.7387   3.8743   4.1003
     4.3846   5.0571   5.5845   5.9347   6.1934   6.7880   6.7986   6.8565
     7.3300   7.5116

          k =-0.5081-0.3869 0.1485 ( 36477 PWs)   bands (ev):

   -44.1333 -44.1333 -22.2531 -22.2531 -22.1999 -22.1999 -22.0612 -22.0612
    -7.3761  -7.1686  -6.8347  -6.7287  -5.9777  -5.4776  -4.9071  -4.6557
    -4.6468  -4.4699   0.3777   0.6460   0.7468   0.9802   1.2857   1.3787
     1.6043   1.6947   2.0016   2.0632   2.3394   2.5530   2.8250   3.2289
     3.4248   3.4581   3.4984   3.5681   3.6126   3.7304   3.8280   4.1148
     4.2187   4.5287   6.0879   6.2138   6.2710   6.6708   6.8008   6.8856
     7.1606   7.4871

          k =-0.5081-0.3869-0.2971 ( 36492 PWs)   bands (ev):

   -44.1333 -44.1333 -22.2531 -22.2531 -22.1999 -22.1999 -22.0612 -22.0612
    -7.2899  -7.2899  -6.7683  -6.7683  -5.7606  -5.7606  -4.7576  -4.7576
    -4.5439  -4.5439   0.5085   0.5085   1.0132   1.0132   1.0607   1.0607
     1.6270   1.6270   2.0252   2.0252   2.7656   2.7656   3.1396   3.1396
     3.3628   3.3628   3.4577   3.4577   3.6830   3.6830   3.8353   3.8353
     4.2205   4.2205   6.3211   6.3211   6.6774   6.6774   6.7889   6.7889
     7.1755   7.1755

          k =-0.2541-0.3224 0.0000 ( 36485 PWs)   bands (ev):

   -44.1342 -44.1342 -22.2578 -22.2578 -22.1765 -22.1765 -22.0640 -22.0639
    -7.7509  -7.4186  -7.0466  -6.8373  -6.2620  -5.3700  -4.9535  -4.8034
    -4.7180  -3.9880   0.4690   0.8942   1.0928   1.2316   1.3166   1.5250
     1.8236   1.9059   1.9766   2.4642   2.5407   3.2390   3.3410   3.4964
     3.6021   3.6558   3.7456   3.8179   3.9312   4.1445   4.1527   4.2591
     4.3312   4.6110   5.9704   6.0362   6.3417   6.5832   6.7025   6.7829
     6.9209   7.0289

          k =-0.2541-0.3224 0.1485 ( 36445 PWs)   bands (ev):

   -44.1342 -44.1341 -22.2578 -22.2578 -22.1765 -22.1765 -22.0640 -22.0639
    -7.7182  -7.4975  -6.9853  -6.8530  -6.1777  -5.6115  -4.8463  -4.7386
    -4.6460  -4.0774   0.5197   0.9392   0.9747   1.1661   1.2960   1.4559
     1.7938   2.0601   2.3010   2.4676   2.5283   2.9253   3.3886   3.4456
     3.4941   3.5441   3.6651   3.8922   3.9156   4.0841   4.2045   4.2606
     4.6985   4.8216   5.8252   5.9941   6.1589   6.3670   6.5737   6.7468
     7.1423   7.2661

          k =-0.2541-0.3224-0.2971 ( 36442 PWs)   bands (ev):

   -44.1342 -44.1342 -22.2578 -22.2578 -22.1765 -22.1765 -22.0640 -22.0640
    -7.6256  -7.6256  -6.9020  -6.9020  -5.9409  -5.9409  -4.7874  -4.7874
    -4.3214  -4.3214   0.6847   0.6847   1.1580   1.1580   1.2281   1.2281
     2.0990   2.0990   2.4453   2.4453   2.6635   2.6635   3.2400   3.2400
     3.4739   3.4739   3.7966   3.7966   4.0444   4.0444   4.2403   4.2403
     5.0488   5.0488   5.7055   5.7055   6.1487   6.1487   6.6123   6.6123
     7.3657   7.3657

          k = 0.0000-0.2579 0.0000 ( 36445 PWs)   bands (ev):

   -44.1345 -44.1345 -22.2597 -22.2597 -22.1668 -22.1668 -22.0652 -22.0651
    -7.8737  -7.5330  -7.1167  -6.8818  -6.3203  -5.4163  -4.9336  -4.8447
    -4.7630  -3.8324   0.3874   0.7660   0.9267   1.1813   1.4778   1.6222
     2.2436   2.3287   2.5150   2.7694   2.9438   3.0347   3.3167   3.4038
     3.4519   3.6481   3.7694   3.9579   4.1550   4.1825   4.2566   4.6785
     4.7965   5.4023   5.7164   5.8762   5.9192   6.0646   6.2711   6.7895
     6.9945   7.1690

          k = 0.0000-0.2579 0.1485 ( 36452 PWs)   bands (ev):

   -44.1345 -44.1345 -22.2597 -22.2597 -22.1668 -22.1668 -22.0652 -22.0651
    -7.8402  -7.6138  -7.0483  -6.8988  -6.2392  -5.6656  -4.8644  -4.7813
    -4.6282  -3.9460   0.4508   0.9255   0.9565   1.0557   1.1510   1.9290
     2.1140   2.2702   2.4495   2.8208   2.9310   3.1210   3.3093   3.3966
     3.6329   3.6596   3.8343   3.9114   4.1815   4.1832   4.2159   4.6790
     4.7430   4.9627   5.8620   6.0068   6.0441   6.0576   6.5464   6.6102
     6.8180   7.1247

          k = 0.0000-0.2579-0.2971 ( 36454 PWs)   bands (ev):

   -44.1345 -44.1345 -22.2597 -22.2597 -22.1668 -22.1668 -22.0651 -22.0651
    -7.7453  -7.7453  -6.9536  -6.9536  -6.0036  -6.0036  -4.8212  -4.8212
    -4.2442  -4.2442   0.6708   0.6708   1.0388   1.0388   1.3805   1.3805
     2.3453   2.3453   2.6697   2.6697   2.8901   2.8901   3.3786   3.3786
     3.7748   3.7748   4.0024   4.0024   4.1178   4.1178   4.3851   4.3851
     4.6914   4.6914   5.9609   5.9609   6.2739   6.2739   6.4402   6.4402
     6.9480   6.9480

          k = 1.5243 0.0000 0.0000 ( 36439 PWs)   bands (ev):

   -44.1333 -44.1332 -22.2531 -22.2531 -22.1999 -22.1999 -22.0612 -22.0611
    -7.4023  -7.0860  -6.8912  -6.7184  -6.0641  -5.2611  -5.0700  -4.6957
    -4.6094  -4.4508   0.3469   0.6251   0.6255   1.2236   1.3320   1.6008
     1.6818   1.6825   2.0410   2.0678   2.2329   2.2758   2.4292   3.2345
     3.4233   3.4407   3.5041   3.6992   3.7136   3.7238   3.7614   4.1195
     4.3789   5.0581   5.5811   5.8965   6.2237   6.7519   6.8511   6.9128
     7.2848   7.5461

          k = 1.5243 0.0000 0.1485 ( 36476 PWs)   bands (ev):

   -44.1333 -44.1333 -22.2531 -22.2531 -22.1999 -22.1999 -22.0612 -22.0612
    -7.3721  -7.1664  -6.8369  -6.7320  -5.9803  -5.4778  -4.9111  -4.6548
    -4.6469  -4.4689   0.3755   0.6513   0.7427   0.9775   1.2945   1.3831
     1.6599   1.7179   2.0037   2.0441   2.3496   2.5538   2.8294   3.1878
     3.3860   3.4636   3.4818   3.5904   3.6397   3.7210   3.7818   4.1547
     4.1562   4.5336   6.0622   6.2272   6.2653   6.6409   6.8419   6.9541
     7.1135   7.5014

          k = 1.5243 0.0000-0.2971 ( 36508 PWs)   bands (ev):

   -44.1333 -44.1333 -22.2531 -22.2531 -22.1999 -22.1999 -22.0612 -22.0612
    -7.2865  -7.2865  -6.7718  -6.7718  -5.7615  -5.7615  -4.7611  -4.7611
    -4.5416  -4.5416   0.5105   0.5105   1.0111   1.0111   1.0574   1.0574
     1.6821   1.6821   2.0079   2.0079   2.7861   2.7861   3.1017   3.1017
     3.3626   3.3626   3.4494   3.4494   3.6813   3.6813   3.8309   3.8309
     4.2036   4.2036   6.3073   6.3073   6.6745   6.6745   6.7988   6.7988
     7.1916   7.1916

          k =-0.2541-0.4514 0.0000 ( 36444 PWs)   bands (ev):

   -44.1342 -44.1342 -22.2578 -22.2578 -22.1765 -22.1765 -22.0640 -22.0639
    -7.7441  -7.4174  -7.0422  -6.8419  -6.2757  -5.3717  -4.9626  -4.8034
    -4.7128  -3.9889   0.4799   0.9035   1.2128   1.2243   1.3342   1.6100
     1.8507   1.9439   1.9737   2.3846   2.4670   3.2228   3.3544   3.4259
     3.4957   3.6958   3.7629   3.8064   3.8557   4.1047   4.1155   4.1977
     4.3238   4.6179   6.0434   6.0502   6.3696   6.5827   6.7507   6.8007
     6.8328   7.0061

          k =-0.2541-0.4514 0.1485 ( 36461 PWs)   bands (ev):

   -44.1342 -44.1342 -22.2578 -22.2578 -22.1765 -22.1765 -22.0640 -22.0639
    -7.7116  -7.4940  -6.9851  -6.8578  -6.1882  -5.6137  -4.8588  -4.7359
    -4.6412  -4.0774   0.5289   0.9519   0.9785   1.2947   1.3475   1.4841
     1.8189   2.0615   2.3453   2.3925   2.4507   2.9298   3.3231   3.3571
     3.4617   3.5578   3.7281   3.8470   3.8839   3.9645   4.1947   4.2294
     4.7411   4.7857   5.8192   6.0182   6.1656   6.3560   6.6409   6.7409
     7.1289   7.2516

          k =-0.2541-0.4514-0.2971 ( 36490 PWs)   bands (ev):

   -44.1342 -44.1342 -22.2578 -22.2578 -22.1765 -22.1765 -22.0640 -22.0640
    -7.6200  -7.6200  -6.9061  -6.9061  -5.9460  -5.9460  -4.7920  -4.7920
    -4.3192  -4.3192   0.6911   0.6911   1.1733   1.1733   1.3294   1.3294
     2.1076   2.1076   2.3948   2.3948   2.6620   2.6620   3.2409   3.2409
     3.3677   3.3677   3.8294   3.8294   3.9817   3.9817   4.2096   4.2096
     5.0609   5.0609   5.6812   5.6812   6.1319   6.1319   6.6702   6.6702
     7.3543   7.3543

          k = 0.0000-0.3869 0.0000 ( 36477 PWs)   bands (ev):

   -44.1345 -44.1345 -22.2597 -22.2597 -22.1668 -22.1668 -22.0652 -22.0651
    -7.8651  -7.5316  -7.1082  -6.8879  -6.3413  -5.4198  -4.9492  -4.8421
    -4.7555  -3.8337   0.4105   0.7778   1.0778   1.2431   1.5022   1.6922
     2.2453   2.3319   2.5130   2.7885   2.9453   3.0700   3.1228   3.1643
     3.5565   3.5869   3.7418   3.9488   3.9947   4.0233   4.2567   4.6777
     4.7701   5.3757   5.7742   5.8948   5.9844   6.1117   6.3300   6.7098
     6.9946   7.1358

          k = 0.0000-0.3869 0.1485 ( 36452 PWs)   bands (ev):

   -44.1345 -44.1345 -22.2597 -22.2597 -22.1668 -22.1668 -22.0652 -22.0651
    -7.8319  -7.6094  -7.0456  -6.9049  -6.2559  -5.6698  -4.8808  -4.7770
    -4.6231  -3.9462   0.4694   0.9523   1.0222   1.1642   1.2310   1.9468
     2.1547   2.2720   2.4500   2.8351   2.9343   3.0231   3.1159   3.3312
     3.5531   3.6985   3.8088   3.9152   4.0465   4.0688   4.1757   4.6779
     4.7272   4.9601   5.9085   6.0455   6.0699   6.0709   6.5563   6.5736
     6.8203   7.0908

          k = 0.0000-0.3869-0.2971 ( 36454 PWs)   bands (ev):

   -44.1345 -44.1345 -22.2597 -22.2597 -22.1668 -22.1668 -22.0651 -22.0651
    -7.7382  -7.7382  -6.9576  -6.9576  -6.0125  -6.0125  -4.8269  -4.8269
    -4.2421  -4.2421   0.6866   0.6866   1.1678   1.1678   1.3990   1.3990
     2.3471   2.3471   2.6815   2.6815   2.8982   2.8982   3.1614   3.1614
     3.8117   3.8117   3.9836   3.9836   3.9994   3.9994   4.3623   4.3623
     4.6870   4.6870   5.9591   5.9591   6.3019   6.3019   6.4470   6.4470
     6.9184   6.9184

          k =-2.0325 0.0000 0.0000 ( 36452 PWs)   bands (ev):

   -44.1345 -44.1345 -22.2597 -22.2597 -22.1668 -22.1668 -22.0652 -22.0651
    -7.8615  -7.5310  -7.1050  -6.8899  -6.3504  -5.4212  -4.9556  -4.8400
    -4.7534  -3.8343   0.4162   0.7829   1.1985   1.2237   1.5118   1.7350
     2.2461   2.3342   2.5121   2.7969   2.9457   2.9962   3.0484   3.0900
     3.5892   3.6879   3.7302   3.8489   3.9467   3.9649   4.2567   4.6774
     4.7593   5.3677   5.7980   5.9025   6.0190   6.1262   6.3483   6.6612
     6.9946   7.1299

          k =-2.0325 0.0000 0.1485 ( 36456 PWs)   bands (ev):

   -44.1345 -44.1345 -22.2597 -22.2597 -22.1668 -22.1668 -22.0652 -22.0651
    -7.8285  -7.6075  -7.0447  -6.9071  -6.2629  -5.6715  -4.8871  -4.7756
    -4.6211  -3.9462   0.4733   0.9616   1.0413   1.2308   1.2770   1.9550
     2.1741   2.2727   2.4502   2.8415   2.9327   2.9355   2.9974   3.3455
     3.5317   3.7728   3.7981   3.9202   3.9544   4.0061   4.1724   4.6775
     4.7207   4.9600   5.9326   6.0615   6.0717   6.0765   6.5338   6.5735
     6.8212   7.0805

          k =-2.0325 0.0000-0.2971 ( 36460 PWs)   bands (ev):

   -44.1345 -44.1345 -22.2597 -22.2597 -22.1668 -22.1668 -22.0651 -22.0651
    -7.7352  -7.7352  -6.9594  -6.9594  -6.0161  -6.0161  -4.8292  -4.8292
    -4.2412  -4.2412   0.6894   0.6894   1.2369   1.2369   1.4070   1.4070
     2.3478   2.3478   2.6718   2.6718   2.9016   2.9016   3.0684   3.0684
     3.8607   3.8607   3.9279   3.9279   3.9756   3.9756   4.3540   4.3540
     4.6852   4.6852   5.9549   5.9549   6.3113   6.3113   6.4499   6.4499
     6.9049   6.9049

     the Fermi energy is     5.5622 ev

!    total energy              =   -4240.95401534 Ry

     total all-electron energy =   -150287.647710 Ry
     estimated scf accuracy    <          5.1E-11 Ry
     smearing contrib. (-TS)   =       0.00002908 Ry
     internal energy E=F+TS    =   -4240.95404442 Ry

     The total energy is F=E-TS. E is the sum of the following terms:
     one-electron contribution =    -167.02622164 Ry
     hartree contribution      =     116.98999922 Ry
     xc contribution           =    -201.50761997 Ry
     ewald contribution        =    -221.88901604 Ry
     one-center paw contrib.   =   -3767.52118598 Ry

     convergence has been achieved in  17 iterations

     Forces acting on atoms (cartesian axes, Ry/au):

     atom    1 type  1   force =     0.00000000    0.00100681    0.00000000
     atom    2 type  1   force =     0.00000000   -0.00100681    0.00000000
     atom    3 type  2   force =    -0.00000000    0.00007833    0.00000000
     atom    4 type  2   force =     0.00000000   -0.00007833    0.00000000
     atom    5 type  2   force =     0.00000000   -0.00023432    0.00005127
     atom    6 type  2   force =     0.00000000    0.00023432   -0.00005127
     atom    7 type  2   force =     0.00000000   -0.00023432   -0.00005127
     atom    8 type  2   force =     0.00000000    0.00023432    0.00005127
     atom    9 type  2   force =     0.00000000   -0.00162871   -0.00172868
     atom   10 type  2   force =     0.00000000    0.00162871    0.00172868
     atom   11 type  2   force =     0.00000000   -0.00162871    0.00172868
     atom   12 type  2   force =     0.00000000    0.00162871   -0.00172868

     Total force =     0.004983     Total SCF correction =     0.000010


     Computing stress (Cartesian axis) and pressure

          total   stress  (Ry/bohr**3)                   (kbar)     P=        0.38
   0.00000272   0.00000000   0.00000000            0.40        0.00        0.00
   0.00000000   0.00000187   0.00000000            0.00        0.28        0.00
   0.00000000   0.00000000   0.00000316            0.00        0.00        0.46

 
     init_run     :     34.58s CPU     35.48s WALL (       1 calls)
     electrons    :   1632.99s CPU   1650.92s WALL (       1 calls)
     forces       :      6.87s CPU      7.10s WALL (       1 calls)
     stress       :     49.89s CPU     50.59s WALL (       1 calls)

     Called by init_run:
     wfcinit      :     29.84s CPU     30.42s WALL (       1 calls)
     potinit      :      1.55s CPU      1.60s WALL (       1 calls)
     hinit0       :      1.66s CPU      1.67s WALL (       1 calls)

     Called by electrons:
     c_bands      :   1306.44s CPU   1314.17s WALL (      18 calls)
     sum_band     :    294.31s CPU    300.38s WALL (      18 calls)
     v_of_rho     :      8.04s CPU      8.64s WALL (      18 calls)
     newd         :     17.19s CPU     20.90s WALL (      18 calls)
     PAW_pot      :      6.46s CPU      6.47s WALL (      18 calls)
     mix_rho      :      1.51s CPU      1.55s WALL (      18 calls)

     Called by c_bands:
     init_us_2    :     13.71s CPU     13.80s WALL (    2457 calls)
     cegterg      :   1230.80s CPU   1237.79s WALL (    1134 calls)

     Called by *egterg:
     cdiaghg      :     26.36s CPU     26.48s WALL (    7620 calls)
     h_psi        :   1063.17s CPU   1070.06s WALL (    7746 calls)
     s_psi        :     48.28s CPU     48.39s WALL (    7746 calls)
     g_psi        :      2.10s CPU      2.11s WALL (    6549 calls)

     Called by h_psi:
     h_psi:calbec :     41.34s CPU     41.48s WALL (    7746 calls)
     vloc_psi     :    970.06s CPU    976.62s WALL (    7746 calls)
     add_vuspsi   :     48.00s CPU     48.11s WALL (    7746 calls)

     General routines
     calbec       :     55.02s CPU     55.20s WALL (    9195 calls)
     fft          :      7.27s CPU      7.47s WALL (     258 calls)
     ffts         :      0.19s CPU      0.19s WALL (      36 calls)
     fftw         :    983.53s CPU    990.09s WALL (  405410 calls)
     interpolate  :      0.63s CPU      0.63s WALL (      18 calls)
 
     Parallel routines
     fft_scatt_xy :    262.20s CPU    264.01s WALL (  405704 calls)
     fft_scatt_yz :    196.46s CPU    198.06s WALL (  405704 calls)
 
     PWSCF        :  28m44.57s CPU  29m 4.53s WALL

 
   This run was terminated on:  15:15: 1  19Nov2021            

=------------------------------------------------------------------------------=
   JOB DONE.
=------------------------------------------------------------------------------=
