
     Program PWSCF v.6.7MaX starts on 19Nov2021 at 14:46:17 

     This program is part of the open-source Quantum ESPRESSO suite
     for quantum simulation of materials; please cite
         "P. Giannozzi et al., J. Phys.:Condens. Matter 21 395502 (2009);
         "P. Giannozzi et al., J. Phys.:Condens. Matter 29 465901 (2017);
          URL http://www.quantum-espresso.org", 
     in publications or presentations arising from this work. More details at
     http://www.quantum-espresso.org/quote

     Parallel version (MPI), running on    10 processors

     MPI processes distributed on     1 nodes
     R & G space division:  proc/nbgrp/npool/nimage =      10
     Waiting for input...
     Reading input from standard input

     Current dimensions of program PWSCF are:
     Max number of different atomic species (ntypx) = 10
     Max number of k-points (npk) =  40000
     Max angular momentum in pseudopotentials (lmaxx) =  3
     file Zr.pbe-spn-kjpaw_psl.1.0.0.UPF: wavefunction(s)  4S 4P renormalized
     file Te.pbe-n-kjpaw_psl.1.0.0.UPF: wavefunction(s)  5S 5P renormalized

     Subspace diagonalization in iterative solution of the eigenvalue problem:
     a serial algorithm will be used

     Message from routine setup:
     using ibrav=0 with symmetry is DISCOURAGED, use correct ibrav instead
 
     Parallelization info
     --------------------
     sticks:   dense  smooth     PW     G-vecs:    dense   smooth      PW
     Min         734     293     87               115340    29174    4753
     Max         735     295     88               115345    29176    4760
     Sum        7345    2937    873              1153415   291749   47557
 


     bravais-lattice index     =            0
     lattice parameter (alat)  =      15.5510  a.u.
     unit-cell volume          =    3018.5011 (a.u.)^3
     number of atoms/cell      =           12
     number of atomic types    =            2
     number of electrons       =        84.00
     number of Kohn-Sham states=           50
     kinetic-energy cutoff     =      80.0000  Ry
     charge density cutoff     =     800.0000  Ry
     scf convergence threshold =      1.0E-10
     mixing beta               =       0.7000
     number of iterations used =            8  plain     mixing
     Exchange-correlation= SLA  PW   PBX  PBC
                           (   1   4   3   4   0   0   0)

     celldm(1)=  15.551040  celldm(2)=   0.000000  celldm(3)=   0.000000
     celldm(4)=   0.000000  celldm(5)=   0.000000  celldm(6)=   0.000000

     crystal axes: (cart. coord. in units of alat)
               a(1) = (   0.246007  -0.969268   0.000000 )  
               a(2) = (   0.246007   0.969268   0.000000 )  
               a(3) = (   0.000000   0.000000   1.683031 )  

     reciprocal axes: (cart. coord. in units 2 pi/alat)
               b(1) = (  2.032465 -0.515853  0.000000 )  
               b(2) = (  2.032465  0.515853  0.000000 )  
               b(3) = (  0.000000  0.000000  0.594166 )  


     PseudoPot. # 1 for Zr read from file:
     pseudo/Zr.pbe-spn-kjpaw_psl.1.0.0.UPF
     MD5 check sum: 02112c41713a0468aff2bb39ef194e36
     Pseudo is Projector augmented-wave + core cor, Zval = 12.0
     Generated using &quot;atomic&quot; code by A. Dal Corso  v.6.2.2
     Shape of augmentation charge: PSQ
     Using radial grid of 1225 points,  6 beta functions with: 
                l(1) =   0
                l(2) =   0
                l(3) =   1
                l(4) =   1
                l(5) =   2
                l(6) =   2
     Q(r) pseudized with 0 coefficients 


     PseudoPot. # 2 for Te read from file:
     pseudo/Te.pbe-n-kjpaw_psl.1.0.0.UPF
     MD5 check sum: 66247bff2bd9dbf220fbb0bf5ab56e9d
     Pseudo is Projector augmented-wave + core cor, Zval =  6.0
     Generated using &quot;atomic&quot; code by A. Dal Corso  v.6.3
     Shape of augmentation charge: PSQ
     Using radial grid of 1245 points,  6 beta functions with: 
                l(1) =   0
                l(2) =   0
                l(3) =   1
                l(4) =   1
                l(5) =   2
                l(6) =   2
     Q(r) pseudized with 0 coefficients 


     atomic species   valence    mass     pseudopotential
        Zr            12.00    91.22000     Zr( 1.00)
        Te             6.00   127.60000     Te( 1.00)

      8 Sym. Ops., with inversion, found ( 4 have fractional translation)



   Cartesian axes

     site n.     atom                  positions (alat units)
         1           Zr  tau(   1) = (   0.0000000   0.6049004   0.4207578  )
         2           Zr  tau(   2) = (   0.2460067   0.3643677   1.2622733  )
         3           Te  tau(   3) = (   0.2460067   0.3342342   0.4207578  )
         4           Te  tau(   4) = (   0.0000000   0.6350339   1.2622733  )
         5           Te  tau(   5) = (   0.2460067   0.8101476   0.2522830  )
         6           Te  tau(   6) = (   0.0000000   0.1591205   1.4307480  )
         7           Te  tau(   7) = (   0.2460067   0.8101476   0.5892325  )
         8           Te  tau(   8) = (   0.0000000   0.1591205   1.0937986  )
         9           Te  tau(   9) = (   0.0000000   0.4161305   0.7320641  )
        10           Te  tau(  10) = (   0.2460067   0.5531376   0.9509669  )
        11           Te  tau(  11) = (   0.0000000   0.4161305   0.1094514  )
        12           Te  tau(  12) = (   0.2460067   0.5531376   1.5735797  )

     number of k points=    63  Methfessel-Paxton smearing, width (Ry)=  0.0030
                       cart. coord. in units 2pi/alat
        k(    1) = (   0.0000000   0.0000000   0.0000000), wk =   0.0078125
        k(    2) = (   0.0000000   0.0000000   0.1485415), wk =   0.0156250
        k(    3) = (   0.0000000   0.0000000  -0.2970830), wk =   0.0078125
        k(    4) = (   0.2540581   0.0644816   0.0000000), wk =   0.0312500
        k(    5) = (   0.2540581   0.0644816   0.1485415), wk =   0.0625000
        k(    6) = (   0.2540581   0.0644816  -0.2970830), wk =   0.0312500
        k(    7) = (   0.5081162   0.1289633   0.0000000), wk =   0.0312500
        k(    8) = (   0.5081162   0.1289633   0.1485415), wk =   0.0625000
        k(    9) = (   0.5081162   0.1289633  -0.2970830), wk =   0.0312500
        k(   10) = (   0.7621743   0.1934449   0.0000000), wk =   0.0312500
        k(   11) = (   0.7621743   0.1934449   0.1485415), wk =   0.0625000
        k(   12) = (   0.7621743   0.1934449  -0.2970830), wk =   0.0312500
        k(   13) = (  -1.0162324  -0.2579266   0.0000000), wk =   0.0156250
        k(   14) = (  -1.0162324  -0.2579266   0.1485415), wk =   0.0312500
        k(   15) = (  -1.0162324  -0.2579266  -0.2970830), wk =   0.0156250
        k(   16) = (   0.5081162   0.0000000   0.0000000), wk =   0.0156250
        k(   17) = (   0.5081162   0.0000000   0.1485415), wk =   0.0312500
        k(   18) = (   0.5081162   0.0000000  -0.2970830), wk =   0.0156250
        k(   19) = (   0.7621743   0.0644816   0.0000000), wk =   0.0312500
        k(   20) = (   0.7621743   0.0644816   0.1485415), wk =   0.0625000
        k(   21) = (   0.7621743   0.0644816  -0.2970830), wk =   0.0312500
        k(   22) = (   1.0162324   0.1289633   0.0000000), wk =   0.0312500
        k(   23) = (   1.0162324   0.1289633   0.1485415), wk =   0.0625000
        k(   24) = (   1.0162324   0.1289633  -0.2970830), wk =   0.0312500
        k(   25) = (  -0.7621743  -0.3224082   0.0000000), wk =   0.0312500
        k(   26) = (  -0.7621743  -0.3224082   0.1485415), wk =   0.0625000
        k(   27) = (  -0.7621743  -0.3224082  -0.2970830), wk =   0.0312500
        k(   28) = (  -0.5081162  -0.2579266   0.0000000), wk =   0.0312500
        k(   29) = (  -0.5081162  -0.2579266   0.1485415), wk =   0.0625000
        k(   30) = (  -0.5081162  -0.2579266  -0.2970830), wk =   0.0312500
        k(   31) = (  -0.2540581  -0.1934449   0.0000000), wk =   0.0312500
        k(   32) = (  -0.2540581  -0.1934449   0.1485415), wk =   0.0625000
        k(   33) = (  -0.2540581  -0.1934449  -0.2970830), wk =   0.0312500
        k(   34) = (   0.0000000  -0.1289633   0.0000000), wk =   0.0156250
        k(   35) = (   0.0000000  -0.1289633   0.1485415), wk =   0.0312500
        k(   36) = (   0.0000000  -0.1289633  -0.2970830), wk =   0.0156250
        k(   37) = (   1.0162324   0.0000000   0.0000000), wk =   0.0156250
        k(   38) = (   1.0162324   0.0000000   0.1485415), wk =   0.0312500
        k(   39) = (   1.0162324   0.0000000  -0.2970830), wk =   0.0156250
        k(   40) = (   1.2702905   0.0644816   0.0000000), wk =   0.0312500
        k(   41) = (   1.2702905   0.0644816   0.1485415), wk =   0.0625000
        k(   42) = (   1.2702905   0.0644816  -0.2970830), wk =   0.0312500
        k(   43) = (  -0.5081162  -0.3868899   0.0000000), wk =   0.0312500
        k(   44) = (  -0.5081162  -0.3868899   0.1485415), wk =   0.0625000
        k(   45) = (  -0.5081162  -0.3868899  -0.2970830), wk =   0.0312500
        k(   46) = (  -0.2540581  -0.3224082   0.0000000), wk =   0.0312500
        k(   47) = (  -0.2540581  -0.3224082   0.1485415), wk =   0.0625000
        k(   48) = (  -0.2540581  -0.3224082  -0.2970830), wk =   0.0312500
        k(   49) = (   0.0000000  -0.2579266   0.0000000), wk =   0.0156250
        k(   50) = (   0.0000000  -0.2579266   0.1485415), wk =   0.0312500
        k(   51) = (   0.0000000  -0.2579266  -0.2970830), wk =   0.0156250
        k(   52) = (   1.5243485   0.0000000   0.0000000), wk =   0.0156250
        k(   53) = (   1.5243485   0.0000000   0.1485415), wk =   0.0312500
        k(   54) = (   1.5243485   0.0000000  -0.2970830), wk =   0.0156250
        k(   55) = (  -0.2540581  -0.4513715   0.0000000), wk =   0.0312500
        k(   56) = (  -0.2540581  -0.4513715   0.1485415), wk =   0.0625000
        k(   57) = (  -0.2540581  -0.4513715  -0.2970830), wk =   0.0312500
        k(   58) = (   0.0000000  -0.3868899   0.0000000), wk =   0.0156250
        k(   59) = (   0.0000000  -0.3868899   0.1485415), wk =   0.0312500
        k(   60) = (   0.0000000  -0.3868899  -0.2970830), wk =   0.0156250
        k(   61) = (  -2.0324647   0.0000000   0.0000000), wk =   0.0078125
        k(   62) = (  -2.0324647   0.0000000   0.1485415), wk =   0.0156250
        k(   63) = (  -2.0324647   0.0000000  -0.2970830), wk =   0.0078125

     Dense  grid:  1153415 G-vectors     FFT dimensions: ( 144, 144, 240)

     Smooth grid:   291749 G-vectors     FFT dimensions: (  90,  90, 150)

     Estimated max dynamical RAM per process >     657.19 MB

     Estimated total dynamical RAM >       6.42 GB

     Initial potential from superposition of free atoms

     starting charge   83.99353, renormalised to   84.00000
     Starting wfcs are   66 randomized atomic wfcs
     Checking if some PAW data can be deallocated... 

     total cpu time spent up to now is       44.3 secs

     Self-consistent Calculation

     iteration #  1     ecut=    80.00 Ry     beta= 0.70
     Davidson diagonalization with overlap
     ethr =  1.00E-02,  avg # of iterations =  2.1

     Threshold (ethr) on eigenvalues was too large:
     Diagonalizing with lowered threshold

     Davidson diagonalization with overlap
     ethr =  4.20E-04,  avg # of iterations =  4.0

     total cpu time spent up to now is      206.0 secs

     total energy              =   -4240.73117711 Ry
     estimated scf accuracy    <       0.43573443 Ry

     iteration #  2     ecut=    80.00 Ry     beta= 0.70
     Davidson diagonalization with overlap
     ethr =  5.19E-04,  avg # of iterations =  7.6

     total cpu time spent up to now is      321.3 secs

     total energy              =   -4240.63783763 Ry
     estimated scf accuracy    <       2.04566175 Ry

     iteration #  3     ecut=    80.00 Ry     beta= 0.70
     Davidson diagonalization with overlap
     ethr =  5.19E-04,  avg # of iterations =  5.3

     total cpu time spent up to now is      417.4 secs

     total energy              =   -4240.93834838 Ry
     estimated scf accuracy    <       0.00964761 Ry

     iteration #  4     ecut=    80.00 Ry     beta= 0.70
     Davidson diagonalization with overlap
     c_bands:  2 eigenvalues not converged
     c_bands:  1 eigenvalues not converged
     c_bands:  1 eigenvalues not converged
     c_bands:  2 eigenvalues not converged
     c_bands:  1 eigenvalues not converged
     c_bands:  1 eigenvalues not converged
     c_bands:  2 eigenvalues not converged
     c_bands:  1 eigenvalues not converged
     c_bands:  1 eigenvalues not converged
     c_bands:  1 eigenvalues not converged
     c_bands:  4 eigenvalues not converged
     c_bands:  2 eigenvalues not converged
     c_bands:  1 eigenvalues not converged
     c_bands:  1 eigenvalues not converged
     c_bands:  1 eigenvalues not converged
     c_bands:  1 eigenvalues not converged
     c_bands:  1 eigenvalues not converged
     c_bands:  1 eigenvalues not converged
     c_bands:  1 eigenvalues not converged
     c_bands:  1 eigenvalues not converged
     c_bands:  1 eigenvalues not converged
     c_bands:  1 eigenvalues not converged
     c_bands:  1 eigenvalues not converged
     ethr =  1.15E-05,  avg # of iterations = 17.6

     total cpu time spent up to now is      600.0 secs

     total energy              =   -4240.95031040 Ry
     estimated scf accuracy    <       0.05933313 Ry

     iteration #  5     ecut=    80.00 Ry     beta= 0.70
     Davidson diagonalization with overlap
     ethr =  1.15E-05,  avg # of iterations =  7.4

     total cpu time spent up to now is      695.4 secs

     total energy              =   -4240.95212517 Ry
     estimated scf accuracy    <       0.01115826 Ry

     iteration #  6     ecut=    80.00 Ry     beta= 0.70
     Davidson diagonalization with overlap
     ethr =  1.15E-05,  avg # of iterations =  3.8

     total cpu time spent up to now is      774.5 secs

     total energy              =   -4240.95297517 Ry
     estimated scf accuracy    <       0.00136140 Ry

     iteration #  7     ecut=    80.00 Ry     beta= 0.70
     Davidson diagonalization with overlap
     c_bands:  1 eigenvalues not converged
     ethr =  1.62E-06,  avg # of iterations = 11.3

     total cpu time spent up to now is      899.4 secs

     total energy              =   -4240.95364731 Ry
     estimated scf accuracy    <       0.00150588 Ry

     iteration #  8     ecut=    80.00 Ry     beta= 0.70
     Davidson diagonalization with overlap
     ethr =  1.62E-06,  avg # of iterations =  2.2

     total cpu time spent up to now is      970.4 secs

     total energy              =   -4240.95368786 Ry
     estimated scf accuracy    <       0.00022905 Ry

     iteration #  9     ecut=    80.00 Ry     beta= 0.70
     Davidson diagonalization with overlap
     ethr =  2.73E-07,  avg # of iterations =  6.4

     total cpu time spent up to now is     1062.7 secs

     total energy              =   -4240.95375970 Ry
     estimated scf accuracy    <       0.00002206 Ry

     iteration # 10     ecut=    80.00 Ry     beta= 0.70
     Davidson diagonalization with overlap
     ethr =  2.63E-08,  avg # of iterations =  3.9

     total cpu time spent up to now is     1140.8 secs

     total energy              =   -4240.95376275 Ry
     estimated scf accuracy    <       0.00000560 Ry

     iteration # 11     ecut=    80.00 Ry     beta= 0.70
     Davidson diagonalization with overlap
     ethr =  6.67E-09,  avg # of iterations =  6.1

     total cpu time spent up to now is     1232.2 secs

     total energy              =   -4240.95376479 Ry
     estimated scf accuracy    <       0.00000075 Ry

     iteration # 12     ecut=    80.00 Ry     beta= 0.70
     Davidson diagonalization with overlap
     ethr =  8.88E-10,  avg # of iterations =  4.1

     total cpu time spent up to now is     1310.1 secs

     total energy              =   -4240.95376492 Ry
     estimated scf accuracy    <       0.00000003 Ry

     iteration # 13     ecut=    80.00 Ry     beta= 0.70
     Davidson diagonalization with overlap
     ethr =  3.59E-11,  avg # of iterations =  9.2

     total cpu time spent up to now is     1434.9 secs

     total energy              =   -4240.95376496 Ry
     estimated scf accuracy    <       0.00000006 Ry

     iteration # 14     ecut=    80.00 Ry     beta= 0.70
     Davidson diagonalization with overlap
     ethr =  3.59E-11,  avg # of iterations =  2.0

     total cpu time spent up to now is     1504.7 secs

     total energy              =   -4240.95376496 Ry
     estimated scf accuracy    <       0.00000001 Ry

     iteration # 15     ecut=    80.00 Ry     beta= 0.70
     Davidson diagonalization with overlap
     c_bands:  1 eigenvalues not converged
     ethr =  1.66E-11,  avg # of iterations =  6.6

     total cpu time spent up to now is     1594.7 secs

     total energy              =   -4240.95376496 Ry
     estimated scf accuracy    <          2.5E-09 Ry

     iteration # 16     ecut=    80.00 Ry     beta= 0.70
     Davidson diagonalization with overlap
     ethr =  2.97E-12,  avg # of iterations =  4.0

     total cpu time spent up to now is     1670.7 secs

     total energy              =   -4240.95376496 Ry
     estimated scf accuracy    <          1.3E-09 Ry

     iteration # 17     ecut=    80.00 Ry     beta= 0.70
     Davidson diagonalization with overlap
     ethr =  1.49E-12,  avg # of iterations =  4.0

     total cpu time spent up to now is     1737.5 secs

     total energy              =   -4240.95376496 Ry
     estimated scf accuracy    <          1.3E-10 Ry

     iteration # 18     ecut=    80.00 Ry     beta= 0.70
     Davidson diagonalization with overlap
     ethr =  1.52E-13,  avg # of iterations =  6.7

     total cpu time spent up to now is     1813.6 secs

     End of self-consistent calculation

          k = 0.0000 0.0000 0.0000 ( 36359 PWs)   bands (ev):

   -44.1351 -44.1351 -22.2594 -22.2593 -22.1668 -22.1668 -22.0662 -22.0661
    -7.9089  -7.5743  -7.1292  -6.8791  -6.2747  -5.4126  -4.8973  -4.8316
    -4.7809  -3.8263   0.3235   0.7524   0.7799   1.1265   1.4288   1.5328
     2.2158   2.3198   2.4741   2.7509   2.9365   3.0086   3.2716   3.3859
     3.7208   3.8197   3.9912   4.0730   4.2651   4.3384   4.3724   4.6844
     4.8196   5.4714   5.6381   5.8489   5.8674   5.9330   6.1149   6.8206
     7.0011   7.2724

          k = 0.0000 0.0000 0.1485 ( 36415 PWs)   bands (ev):

   -44.1351 -44.1351 -22.2594 -22.2593 -22.1668 -22.1668 -22.0662 -22.0661
    -7.8757  -7.6526  -7.0584  -6.8973  -6.2003  -5.6538  -4.8293  -4.7891
    -4.6279  -3.9411   0.3920   0.8141   0.9021   0.9969   1.0843   1.9027
     2.0518   2.2415   2.4133   2.8015   2.9215   3.1081   3.4012   3.4038
     3.7179   3.8801   3.9702   4.0770   4.2008   4.3608   4.3889   4.6848
     4.7584   4.9725   5.8180   5.9348   5.9359   6.0517   6.4741   6.6325
     6.8209   7.1815

          k = 0.0000 0.0000-0.2971 ( 36410 PWs)   bands (ev):

   -44.1351 -44.1351 -22.2593 -22.2593 -22.1668 -22.1668 -22.0662 -22.0662
    -7.7818  -7.7818  -6.9566  -6.9566  -5.9793  -5.9793  -4.8090  -4.8090
    -4.2413  -4.2413   0.6109   0.6109   0.9341   0.9341   1.3534   1.3534
     2.3139   2.3139   2.6272   2.6272   2.8751   2.8751   3.5182   3.5182
     3.9008   3.9008   4.0363   4.0363   4.3451   4.3451   4.3931   4.3931
     4.6986   4.6986   5.9235   5.9235   6.2241   6.2241   6.4383   6.4383
     6.9540   6.9540

          k = 0.2541 0.0645 0.0000 ( 36396 PWs)   bands (ev):

   -44.1347 -44.1347 -22.2574 -22.2574 -22.1765 -22.1765 -22.0651 -22.0650
    -7.7896  -7.4597  -7.0596  -6.8311  -6.2133  -5.3668  -4.9190  -4.7882
    -4.7367  -3.9833   0.4089   0.8763   0.9080   1.2207   1.2425   1.4278
     1.7401   1.8386   1.9421   2.5714   2.5965   3.1832   3.2918   3.7252
     3.7526   3.7600   3.8249   3.8355   4.0340   4.2481   4.3006   4.3204
     4.4916   4.5691   5.8366   5.9783   6.2084   6.5784   6.5971   6.7231
     7.0169   7.1848

          k = 0.2541 0.0645 0.1485 ( 36423 PWs)   bands (ev):

   -44.1347 -44.1347 -22.2574 -22.2574 -22.1765 -22.1765 -22.0651 -22.0650
    -7.7570  -7.5375  -6.9935  -6.8476  -6.1373  -5.6005  -4.8019  -4.7469
    -4.6538  -4.0746   0.4656   0.9244   0.9369   0.9590   1.1920   1.3998
     1.7626   2.0196   2.2137   2.5583   2.5808   2.9526   3.3536   3.3650
     3.5540   3.7856   3.9372   3.9628   4.0348   4.1631   4.3416   4.3537
     4.6847   4.8304   5.8502   5.9449   6.1626   6.2591   6.4012   6.7501
     7.2200   7.2911

          k = 0.2541 0.0645-0.2971 ( 36436 PWs)   bands (ev):

   -44.1347 -44.1347 -22.2574 -22.2574 -22.1765 -22.1765 -22.0650 -22.0650
    -7.6649  -7.6649  -6.9011  -6.9011  -5.9170  -5.9170  -4.7716  -4.7716
    -4.3226  -4.3226   0.6435   0.6435   1.0317   1.0317   1.1546   1.1546
     2.0612   2.0612   2.4778   2.4778   2.6669   2.6669   3.2041   3.2041
     3.6394   3.6394   3.9522   3.9522   4.1191   4.1191   4.3624   4.3624
     5.0120   5.0120   5.7844   5.7844   6.1449   6.1449   6.4474   6.4474
     7.3996   7.3996

          k = 0.5081 0.1290 0.0000 ( 36499 PWs)   bands (ev):

   -44.1339 -44.1338 -22.2527 -22.2527 -22.1999 -22.1999 -22.0623 -22.0622
    -7.4465  -7.1257  -6.8947  -6.7070  -6.0271  -5.2609  -5.0480  -4.6758
    -4.6277  -4.4504   0.3497   0.5939   0.6396   1.1934   1.2262   1.3720
     1.6441   1.6985   1.9375   2.1023   2.1623   2.2720   2.4508   3.3878
     3.4784   3.5094   3.5569   3.5880   3.7726   3.8671   3.9390   4.1846
     4.3949   5.0260   5.6243   6.0720   6.1343   6.5928   6.6130   6.9662
     7.4502   7.5634

          k = 0.5081 0.1290 0.1485 ( 36476 PWs)   bands (ev):

   -44.1339 -44.1339 -22.2527 -22.2527 -22.1999 -22.1999 -22.0623 -22.0622
    -7.4159  -7.2069  -6.8344  -6.7200  -5.9515  -5.4719  -4.8840  -4.6580
    -4.6418  -4.4770   0.3679   0.6100   0.7565   0.9862   1.2501   1.3439
     1.4233   1.5638   2.0158   2.0956   2.3530   2.4526   2.8117   3.4062
     3.4239   3.4762   3.5218   3.6009   3.7204   3.7540   3.8511   4.2352
     4.3106   4.4976   6.1578   6.1946   6.3425   6.5940   6.6576   6.8315
     7.2905   7.5134

          k = 0.5081 0.1290-0.2971 ( 36466 PWs)   bands (ev):

   -44.1339 -44.1339 -22.2527 -22.2527 -22.1999 -22.1999 -22.0623 -22.0623
    -7.3292  -7.3292  -6.7613  -6.7613  -5.7468  -5.7468  -4.7365  -4.7365
    -4.5558  -4.5558   0.4827   0.4827   1.0158   1.0158   1.0744   1.0744
     1.4268   1.4268   2.0572   2.0572   2.6984   2.6984   3.1669   3.1669
     3.4010   3.4010   3.5579   3.5579   3.7193   3.7193   3.8442   3.8442
     4.3155   4.3155   6.3995   6.3995   6.5621   6.5621   6.8436   6.8436
     7.1562   7.1562

          k = 0.7622 0.1934 0.0000 ( 36521 PWs)   bands (ev):

   -44.1330 -44.1330 -22.2479 -22.2479 -22.2231 -22.2231 -22.0595 -22.0595
    -6.9641  -6.7428  -6.6073  -6.5154  -5.7643  -5.4080  -5.2018  -5.1172
    -4.5511  -4.5145  -0.0061   0.0165   0.4626   0.9924   1.0135   1.2749
     1.4832   1.6030   1.9779   2.1051   2.2416   2.3338   2.4222   2.7937
     2.9077   3.2650   3.3438   3.4622   3.5721   3.6719   3.7167   3.8074
     3.8228   4.5662   5.9477   6.3501   6.4088   6.8597   6.8751   6.9569
     7.3233   7.6256

          k = 0.7622 0.1934 0.1485 ( 36503 PWs)   bands (ev):

   -44.1330 -44.1330 -22.2479 -22.2479 -22.2231 -22.2231 -22.0595 -22.0595
    -6.9406  -6.7924  -6.5813  -6.5237  -5.7108  -5.4607  -5.1891  -5.1295
    -4.5426  -4.5174  -0.0094   0.1905   0.3414   0.8855   0.9935   1.2333
     1.4955   1.6201   1.9272   2.0553   2.1270   2.6162   2.6900   2.8613
     2.8946   3.0767   3.2712   3.3878   3.5254   3.6219   3.6664   3.9329
     3.9753   4.5114   5.7338   6.3639   6.6682   6.7746   6.9443   6.9905
     7.1010   7.6001

          k = 0.7622 0.1934-0.2971 ( 36522 PWs)   bands (ev):

   -44.1330 -44.1330 -22.2479 -22.2479 -22.2231 -22.2231 -22.0595 -22.0595
    -6.8764  -6.8764  -6.5468  -6.5468  -5.5853  -5.5853  -5.1592  -5.1592
    -4.5273  -4.5273   0.1246   0.1246   0.5297   0.5297   1.0828   1.0828
     1.5649   1.5649   2.0136   2.0136   2.3867   2.3867   2.8236   2.8236
     2.9855   2.9855   3.3124   3.3124   3.5967   3.5967   3.9002   3.9002
     4.0811   4.0811   6.1854   6.1854   6.4629   6.4629   6.9972   6.9972
     7.4547   7.4547

          k =-1.0162-0.2579 0.0000 ( 36506 PWs)   bands (ev):

   -44.1326 -44.1326 -22.2458 -22.2458 -22.2328 -22.2328 -22.0583 -22.0583
    -6.7208  -6.7006  -6.0354  -6.0243  -5.9880  -5.9812  -5.3070  -5.3064
    -4.4938  -4.4676  -0.0394  -0.0175   0.2789   0.3006   1.0116   1.0206
     1.4678   1.6678   2.2311   2.3916   2.4031   2.4190   2.8063   2.8114
     2.8162   2.8321   3.2059   3.2580   3.3196   3.4020   3.4813   3.6920
     3.8139   4.1044   6.5888   6.5923   6.6145   6.6653   7.0444   7.1415
     7.1467   7.1795

          k =-1.0162-0.2579 0.1485 ( 36506 PWs)   bands (ev):

   -44.1326 -44.1326 -22.2458 -22.2458 -22.2328 -22.2328 -22.0583 -22.0583
    -6.7168  -6.7024  -6.0582  -6.0503  -5.9638  -5.9590  -5.3042  -5.3039
    -4.4931  -4.4746  -0.1366  -0.1299   0.4943   0.5016   1.0085   1.0240
     1.4632   1.5946   2.0059   2.1113   2.3704   2.3979   2.6922   2.6958
     2.9378   3.0399   3.0932   3.1938   3.5553   3.5709   3.6358   3.7512
     4.0302   4.1580   6.0655   6.0831   6.5047   6.5808   7.1317   7.1514
     7.3473   7.4023

          k =-1.0162-0.2579-0.2971 ( 36528 PWs)   bands (ev):

   -44.1326 -44.1326 -22.2458 -22.2458 -22.2328 -22.2328 -22.0583 -22.0583
    -6.7086  -6.7086  -6.0700  -6.0700  -5.9468  -5.9468  -5.3014  -5.3014
    -4.4870  -4.4870  -0.1965  -0.1965   0.7327   0.7327   0.9574   0.9574
     1.5221   1.5221   1.7936   1.7936   2.3706   2.3706   2.7673   2.7673
     2.8887   2.8887   3.1673   3.1673   3.6354   3.6354   3.8050   3.8050
     4.3523   4.3523   5.6381   5.6381   6.4557   6.4557   7.1621   7.1621
     7.4590   7.4590

          k = 0.5081 0.0000 0.0000 ( 36503 PWs)   bands (ev):

   -44.1339 -44.1339 -22.2527 -22.2527 -22.1999 -22.1999 -22.0623 -22.0622
    -7.4501  -7.1263  -6.8955  -6.7035  -6.0237  -5.2609  -5.0453  -4.6700
    -4.6347  -4.4499   0.3551   0.5993   0.6283   1.1887   1.2228   1.3375
     1.6416   1.6948   1.9236   2.1081   2.1687   2.2473   2.4506   3.3790
     3.5006   3.5213   3.5745   3.5783   3.7802   3.9222   3.9231   4.2220
     4.3970   5.0212   5.6302   6.0490   6.1701   6.5546   6.5614   7.0022
     7.4633   7.5797

          k = 0.5081 0.0000 0.1485 ( 36453 PWs)   bands (ev):

   -44.1338 -44.1338 -22.2527 -22.2527 -22.1999 -22.1999 -22.0623 -22.0622
    -7.4194  -7.2089  -6.8333  -6.7165  -5.9490  -5.4717  -4.8797  -4.6595
    -4.6413  -4.4782   0.3705   0.6045   0.7572   0.9899   1.2523   1.3310
     1.3929   1.5424   2.0134   2.1059   2.3898   2.3927   2.8087   3.4024
     3.4685   3.4862   3.4885   3.6103   3.7118   3.8252   3.8370   4.2771
     4.3208   4.4888   6.1501   6.2044   6.3612   6.5464   6.6206   6.8638
     7.3101   7.5232

          k = 0.5081 0.0000-0.2971 ( 36452 PWs)   bands (ev):

   -44.1338 -44.1338 -22.2527 -22.2527 -22.1999 -22.1999 -22.0623 -22.0623
    -7.3322  -7.3322  -6.7583  -6.7583  -5.7458  -5.7458  -4.7326  -4.7326
    -4.5586  -4.5586   0.4805   0.4805   1.0169   1.0169   1.0822   1.0822
     1.3895   1.3895   2.0598   2.0598   2.6892   2.6892   3.1593   3.1593
     3.4053   3.4053   3.5710   3.5710   3.7478   3.7478   3.8419   3.8419
     4.3356   4.3356   6.4151   6.4151   6.5260   6.5260   6.8613   6.8613
     7.1571   7.1571

          k = 0.7622 0.0645 0.0000 ( 36505 PWs)   bands (ev):

   -44.1330 -44.1330 -22.2479 -22.2479 -22.2231 -22.2231 -22.0595 -22.0595
    -6.9721  -6.7404  -6.6086  -6.5083  -5.7643  -5.4051  -5.2024  -5.1164
    -4.5413  -4.5252   0.0038   0.0128   0.4766   1.0022   1.0240   1.2888
     1.4471   1.5653   1.9463   2.1248   2.2616   2.3144   2.3591   2.7688
     2.8965   3.3130   3.3625   3.5047   3.5791   3.6377   3.7006   3.8288
     3.8378   4.5979   5.9451   6.3367   6.4103   6.8472   6.9158   6.9171
     7.3379   7.6448

          k = 0.7622 0.0645 0.1485 ( 36509 PWs)   bands (ev):

   -44.1330 -44.1330 -22.2479 -22.2479 -22.2231 -22.2231 -22.0595 -22.0595
    -6.9482  -6.7945  -6.5781  -6.5165  -5.7112  -5.4596  -5.1884  -5.1286
    -4.5358  -4.5249  -0.0028   0.1891   0.3504   0.8788   1.0175   1.2482
     1.4633   1.6191   1.9576   1.9904   2.0543   2.6281   2.6804   2.8521
     2.8743   3.0804   3.3229   3.3942   3.5537   3.6097   3.6537   3.9629
     3.9918   4.5076   5.7588   6.3424   6.6808   6.7755   6.9465   7.0011
     7.0745   7.6198

          k = 0.7622 0.0645-0.2971 ( 36472 PWs)   bands (ev):

   -44.1330 -44.1330 -22.2479 -22.2479 -22.2231 -22.2231 -22.0595 -22.0595
    -6.8822  -6.8822  -6.5403  -6.5403  -5.5858  -5.5858  -5.1578  -5.1578
    -4.5276  -4.5276   0.1325   0.1325   0.5227   0.5227   1.1049   1.1049
     1.5587   1.5587   1.9623   1.9623   2.3675   2.3675   2.8261   2.8261
     2.9700   2.9700   3.3698   3.3698   3.5938   3.5938   3.8875   3.8875
     4.0971   4.0971   6.2113   6.2113   6.4633   6.4633   6.9654   6.9654
     7.4823   7.4823

          k = 1.0162 0.1290 0.0000 ( 36514 PWs)   bands (ev):

   -44.1326 -44.1326 -22.2458 -22.2458 -22.2328 -22.2328 -22.0583 -22.0583
    -6.7208  -6.7006  -6.0352  -6.0245  -5.9880  -5.9812  -5.3070  -5.3064
    -4.4938  -4.4676  -0.0452  -0.0116   0.2752   0.3045   1.0048   1.0284
     1.4740   1.6584   2.2295   2.3935   2.3991   2.4176   2.8005   2.8012
     2.8117   2.8701   3.2243   3.2400   3.2990   3.3897   3.5260   3.6715
     3.7990   4.1187   6.5804   6.5836   6.6269   6.6724   7.0644   7.1424
     7.1488   7.1649

          k = 1.0162 0.1290 0.1485 ( 36524 PWs)   bands (ev):

   -44.1326 -44.1326 -22.2458 -22.2458 -22.2328 -22.2328 -22.0583 -22.0583
    -6.7168  -6.7024  -6.0581  -6.0504  -5.9637  -5.9590  -5.3042  -5.3038
    -4.4931  -4.4746  -0.1389  -0.1280   0.4957   0.5009   1.0099   1.0229
     1.4688   1.5891   2.0178   2.0944   2.3708   2.3935   2.6539   2.7407
     2.9478   3.0517   3.0855   3.1842   3.5263   3.6035   3.6400   3.7433
     4.0091   4.1774   6.0585   6.0938   6.5014   6.5834   7.1365   7.1507
     7.3556   7.3949

          k = 1.0162 0.1290-0.2971 ( 36516 PWs)   bands (ev):

   -44.1326 -44.1326 -22.2458 -22.2458 -22.2328 -22.2328 -22.0583 -22.0583
    -6.7086  -6.7086  -6.0700  -6.0700  -5.9468  -5.9468  -5.3014  -5.3014
    -4.4870  -4.4870  -0.1966  -0.1966   0.7331   0.7331   0.9573   0.9573
     1.5231   1.5231   1.7944   1.7944   2.3621   2.3621   2.7510   2.7510
     2.9290   2.9290   3.1489   3.1489   3.6383   3.6383   3.8023   3.8023
     4.3528   4.3528   5.6406   5.6406   6.4551   6.4551   7.1635   7.1635
     7.4599   7.4599

          k =-0.7622-0.3224 0.0000 ( 36511 PWs)   bands (ev):

   -44.1330 -44.1330 -22.2479 -22.2479 -22.2231 -22.2231 -22.0595 -22.0595
    -6.9517  -6.7471  -6.6054  -6.5255  -5.7643  -5.4122  -5.2009  -5.1183
    -4.5587  -4.5056  -0.0198   0.0219   0.4431   0.9595   1.0294   1.2577
     1.5039   1.6666   2.0423   2.0810   2.2521   2.3593   2.4508   2.8300
     2.9200   3.2111   3.3287   3.4576   3.5535   3.6409   3.6687   3.7828
     3.8928   4.5124   5.9514   6.3456   6.4416   6.7775   6.9182   7.0230
     7.2924   7.6002

          k =-0.7622-0.3224 0.1485 ( 36492 PWs)   bands (ev):

   -44.1330 -44.1330 -22.2479 -22.2479 -22.2231 -22.2231 -22.0595 -22.0595
    -6.9291  -6.7900  -6.5861  -6.5340  -5.7103  -5.4623  -5.1901  -5.1309
    -4.5479  -4.5111  -0.0191   0.1935   0.3280   0.8894   0.9736   1.2132
     1.5295   1.6260   1.9099   2.1558   2.2055   2.6046   2.6848   2.8793
     2.9113   3.0941   3.2124   3.3704   3.4749   3.6006   3.7140   3.8803
     3.9641   4.5153   5.7006   6.3985   6.6402   6.7715   6.9125   7.0356
     7.1292   7.5603

          k =-0.7622-0.3224-0.2971 ( 36508 PWs)   bands (ev):

   -44.1330 -44.1330 -22.2479 -22.2479 -22.2231 -22.2231 -22.0595 -22.0595
    -6.8677  -6.8677  -6.5565  -6.5565  -5.5847  -5.5847  -5.1610  -5.1610
    -4.5270  -4.5270   0.1138   0.1138   0.5393   0.5393   1.0567   1.0567
     1.5733   1.5733   2.0721   2.0721   2.4321   2.4321   2.8209   2.8209
     3.0084   3.0084   3.2309   3.2309   3.5947   3.5947   3.8976   3.8976
     4.0756   4.0756   6.1520   6.1520   6.4611   6.4611   7.0494   7.0494
     7.4072   7.4072

          k =-0.5081-0.2579 0.0000 ( 36480 PWs)   bands (ev):

   -44.1339 -44.1338 -22.2527 -22.2527 -22.1999 -22.1999 -22.0623 -22.0622
    -7.4375  -7.1242  -6.8933  -6.7151  -6.0356  -5.2609  -5.0548  -4.6844
    -4.6162  -4.4515   0.3370   0.5933   0.6502   1.2042   1.2485   1.4523
     1.6475   1.7167   1.9724   2.0879   2.1552   2.3154   2.4488   3.3934
     3.4081   3.4807   3.5529   3.5984   3.7509   3.7602   3.9616   4.1058
     4.3859   5.0357   5.6125   6.0414   6.1363   6.6905   6.7349   6.8809
     7.4072   7.5268

          k =-0.5081-0.2579 0.1485 ( 36485 PWs)   bands (ev):

   -44.1339 -44.1338 -22.2527 -22.2527 -22.1999 -22.1999 -22.0623 -22.0622
    -7.4073  -7.2022  -6.8375  -6.7281  -5.9577  -5.4725  -4.8941  -4.6545
    -4.6428  -4.4742   0.3618   0.6228   0.7531   0.9778   1.2568   1.3612
     1.5057   1.6247   2.0129   2.0778   2.3384   2.5161   2.8188   3.3300
     3.4265   3.4696   3.5471   3.5846   3.6162   3.7435   3.8568   4.1531
     4.2733   4.5137   6.1470   6.1954   6.3032   6.6955   6.7557   6.7662
     7.2366   7.4931

          k =-0.5081-0.2579-0.2971 ( 36478 PWs)   bands (ev):

   -44.1339 -44.1339 -22.2527 -22.2527 -22.1999 -22.1999 -22.0623 -22.0623
    -7.3218  -7.3218  -6.7685  -6.7685  -5.7492  -5.7492  -4.7455  -4.7455
    -4.5494  -4.5494   0.4876   0.4876   1.0118   1.0118   1.0613   1.0613
     1.5208   1.5208   2.0465   2.0465   2.7254   2.7254   3.1730   3.1730
     3.3842   3.3842   3.5042   3.5042   3.6892   3.6892   3.8465   3.8465
     4.2680   4.2680   6.3636   6.3636   6.6391   6.6391   6.8050   6.8050
     7.1613   7.1613

          k =-0.2541-0.1934 0.0000 ( 36410 PWs)   bands (ev):

   -44.1347 -44.1347 -22.2574 -22.2574 -22.1765 -22.1765 -22.0651 -22.0650
    -7.7835  -7.4586  -7.0542  -6.8368  -6.2259  -5.3688  -4.9276  -4.7955
    -4.7246  -3.9842   0.4341   0.8831   0.9769   1.2166   1.2710   1.4625
     1.7645   1.8626   1.9437   2.5390   2.5867   3.2454   3.2654   3.6663
     3.6995   3.7286   3.7918   3.8631   3.8946   4.1949   4.2781   4.2995
     4.3806   4.6008   5.8922   6.0091   6.2762   6.5790   6.6372   6.7445
     6.9971   7.1040

          k =-0.2541-0.1934 0.1485 ( 36427 PWs)   bands (ev):

   -44.1347 -44.1347 -22.2574 -22.2574 -22.1765 -22.1765 -22.0651 -22.0650
    -7.7511  -7.5344  -6.9920  -6.8529  -6.1475  -5.6031  -4.8198  -4.7399
    -4.6477  -4.0747   0.4892   0.9249   0.9532   1.0383   1.2258   1.4146
     1.7700   2.0228   2.2430   2.5364   2.5685   2.9382   3.3750   3.4061
     3.5641   3.6843   3.8008   3.9008   3.9881   4.1385   4.2975   4.3061
     4.6757   4.8308   5.8410   5.9686   6.1585   6.3294   6.4688   6.7511
     7.1801   7.2805

          k =-0.2541-0.1934-0.2971 ( 36422 PWs)   bands (ev):

   -44.1347 -44.1347 -22.2574 -22.2574 -22.1765 -22.1765 -22.0650 -22.0650
    -7.6598  -7.6598  -6.9044  -6.9044  -5.9225  -5.9225  -4.7761  -4.7761
    -4.3205  -4.3205   0.6625   0.6625   1.0860   1.0860   1.1674   1.1674
     2.0641   2.0641   2.4732   2.4732   2.6665   2.6665   3.2203   3.2203
     3.6255   3.6255   3.8251   3.8251   4.0978   4.0978   4.3093   4.3093
     5.0236   5.0236   5.7487   5.7487   6.1629   6.1629   6.5156   6.5156
     7.3834   7.3834

          k = 0.0000-0.1290 0.0000 ( 36417 PWs)   bands (ev):

   -44.1351 -44.1351 -22.2594 -22.2593 -22.1668 -22.1668 -22.0662 -22.0661
    -7.9056  -7.5738  -7.1255  -6.8821  -6.2827  -5.4143  -4.9030  -4.8370
    -4.7719  -3.8269   0.3418   0.7566   0.8209   1.1362   1.4401   1.5616
     2.2164   2.3195   2.4733   2.7579   2.9378   3.0129   3.3098   3.3778
     3.6731   3.8086   3.8700   4.0128   4.2653   4.2841   4.3245   4.6838
     4.8083   5.4397   5.6605   5.8699   5.8751   5.9822   6.1631   6.8202
     7.0012   7.2337

          k = 0.0000-0.1290 0.1485 ( 36419 PWs)   bands (ev):

   -44.1351 -44.1351 -22.2594 -22.2593 -22.1668 -22.1668 -22.0662 -22.0661
    -7.8726  -7.6509  -7.0568  -6.9000  -6.2070  -5.6558  -4.8395  -4.7843
    -4.6254  -3.9412   0.4098   0.8561   0.9110   1.0019   1.1046   1.9080
     2.0691   2.2421   2.4134   2.8069   2.9233   3.1153   3.3738   3.4337
     3.7089   3.8574   3.8699   3.9940   4.1979   4.3076   4.3435   4.6840
     4.7514   4.9643   5.8305   5.9534   5.9813   6.0571   6.4932   6.6314
     6.8219   7.1610

          k = 0.0000-0.1290-0.2971 ( 36464 PWs)   bands (ev):

   -44.1351 -44.1351 -22.2593 -22.2593 -22.1668 -22.1668 -22.0662 -22.0662
    -7.7792  -7.7792  -6.9579  -6.9579  -5.9831  -5.9831  -4.8112  -4.8112
    -4.2405  -4.2405   0.6309   0.6309   0.9582   0.9582   1.3600   1.3600
     2.3145   2.3145   2.6386   2.6386   2.8785   2.8785   3.5097   3.5097
     3.8424   3.8424   4.0287   4.0287   4.2511   4.2511   4.4048   4.4048
     4.6964   4.6964   5.9413   5.9413   6.2392   6.2392   6.4410   6.4410
     6.9506   6.9506

          k = 1.0162 0.0000 0.0000 ( 36499 PWs)   bands (ev):

   -44.1326 -44.1326 -22.2458 -22.2458 -22.2328 -22.2328 -22.0583 -22.0583
    -6.7208  -6.7006  -6.0350  -6.0248  -5.9880  -5.9812  -5.3069  -5.3064
    -4.4938  -4.4676  -0.0495  -0.0072   0.2722   0.3076   1.0012   1.0332
     1.4809   1.6481   2.2277   2.3957   2.3957   2.4159   2.7966   2.7978
     2.8101   2.8955   3.2431   3.2472   3.2614   3.3726   3.5897   3.6281
     3.7858   4.1316   6.5729   6.5790   6.6348   6.6790   7.0959   7.1389
     7.1434   7.1508

          k = 1.0162 0.0000 0.1485 ( 36485 PWs)   bands (ev):

   -44.1326 -44.1326 -22.2458 -22.2458 -22.2328 -22.2328 -22.0583 -22.0583
    -6.7168  -6.7024  -6.0579  -6.0505  -5.9637  -5.9591  -5.3043  -5.3038
    -4.4931  -4.4746  -0.1405  -0.1266   0.4986   0.4986   1.0118   1.0213
     1.4750   1.5828   2.0396   2.0676   2.3763   2.3842   2.6408   2.7581
     2.9645   3.0680   3.0705   3.1730   3.5135   3.6105   3.6573   3.7315
     3.9919   4.1929   6.0547   6.1013   6.4984   6.5859   7.1433   7.1479
     7.3731   7.3783

          k = 1.0162 0.0000-0.2971 ( 36514 PWs)   bands (ev):

   -44.1326 -44.1326 -22.2458 -22.2458 -22.2328 -22.2328 -22.0583 -22.0583
    -6.7086  -6.7086  -6.0700  -6.0700  -5.9468  -5.9468  -5.3014  -5.3014
    -4.4870  -4.4870  -0.1967  -0.1967   0.7336   0.7336   0.9571   0.9571
     1.5242   1.5242   1.7952   1.7952   2.3538   2.3538   2.7398   2.7398
     2.9699   2.9699   3.1246   3.1246   3.6412   3.6412   3.7996   3.7996
     4.3533   4.3533   5.6430   5.6430   6.4545   6.4545   7.1648   7.1648
     7.4608   7.4608

          k = 1.2703 0.0645 0.0000 ( 36468 PWs)   bands (ev):

   -44.1330 -44.1329 -22.2479 -22.2479 -22.2231 -22.2231 -22.0595 -22.0595
    -6.9422  -6.7510  -6.6040  -6.5325  -5.7644  -5.4152  -5.2003  -5.1192
    -4.5627  -4.5008  -0.0292   0.0259   0.4294   0.9417   1.0406   1.2465
     1.5077   1.7132   2.0656   2.1079   2.2741   2.3769   2.4320   2.8579
     2.9242   3.1683   3.3578   3.4973   3.5105   3.5800   3.6423   3.7331
     3.9782   4.4631   5.9540   6.3407   6.4757   6.7181   6.9514   7.0831
     7.2563   7.5953

          k = 1.2703 0.0645 0.1485 ( 36490 PWs)   bands (ev):

   -44.1330 -44.1330 -22.2479 -22.2479 -22.2231 -22.2231 -22.0595 -22.0595
    -6.9202  -6.7887  -6.5896  -6.5414  -5.7099  -5.4634  -5.1908  -5.1318
    -4.5506  -4.5077  -0.0260   0.1965   0.3180   0.8866   0.9691   1.2001
     1.5460   1.6344   1.9042   2.2282   2.2658   2.5953   2.6666   2.8888
     2.9244   3.1226   3.1746   3.3468   3.4614   3.5529   3.7610   3.8270
     3.9663   4.5166   5.6787   6.4280   6.6108   6.7686   6.8952   7.0863
     7.1409   7.5230

          k = 1.2703 0.0645-0.2971 ( 36480 PWs)   bands (ev):

   -44.1330 -44.1330 -22.2479 -22.2479 -22.2231 -22.2231 -22.0595 -22.0595
    -6.8612  -6.8612  -6.5637  -6.5637  -5.5841  -5.5841  -5.1624  -5.1624
    -4.5268  -4.5268   0.1062   0.1062   0.5456   0.5456   1.0412   1.0412
     1.5794   1.5794   2.1017   2.1017   2.4819   2.4819   2.8214   2.8214
     3.0252   3.0252   3.1671   3.1671   3.5904   3.5904   3.8806   3.8806
     4.0848   4.0848   6.1302   6.1302   6.4592   6.4592   7.0939   7.0939
     7.3647   7.3647

          k =-0.5081-0.3869 0.0000 ( 36463 PWs)   bands (ev):

   -44.1339 -44.1338 -22.2527 -22.2527 -22.1999 -22.1999 -22.0623 -22.0622
    -7.4282  -7.1226  -6.8928  -6.7223  -6.0443  -5.2608  -5.0616  -4.6898
    -4.6078  -4.4527   0.3248   0.6036   0.6443   1.2145   1.2831   1.5467
     1.6526   1.7263   2.0099   2.0698   2.1815   2.3217   2.4427   3.2804
     3.4324   3.4780   3.5021   3.6515   3.6899   3.7340   3.8831   4.1027
     4.3735   5.0423   5.6030   5.9510   6.2030   6.7956   6.7999   6.8605
     7.3355   7.5081

          k =-0.5081-0.3869 0.1485 ( 36477 PWs)   bands (ev):

   -44.1339 -44.1338 -22.2527 -22.2527 -22.1999 -22.1999 -22.0623 -22.0622
    -7.3984  -7.1975  -6.8415  -6.7358  -5.9639  -5.4730  -4.9038  -4.6516
    -4.6437  -4.4715   0.3559   0.6352   0.7467   0.9699   1.2709   1.3740
     1.6053   1.6965   1.9978   2.0608   2.3454   2.5473   2.8266   3.2295
     3.4306   3.4619   3.5019   3.5645   3.6171   3.7334   3.8371   4.1149
     4.2170   4.5270   6.0976   6.2225   6.2791   6.6779   6.8017   6.8904
     7.1645   7.4873

          k =-0.5081-0.3869-0.2971 ( 36492 PWs)   bands (ev):

   -44.1339 -44.1339 -22.2527 -22.2527 -22.1999 -22.1999 -22.0623 -22.0623
    -7.3142  -7.3142  -6.7760  -6.7760  -5.7516  -5.7516  -4.7540  -4.7540
    -4.5436  -4.5436   0.4921   0.4921   1.0066   1.0066   1.0529   1.0529
     1.6306   1.6306   2.0232   2.0232   2.7625   2.7625   3.1351   3.1351
     3.3648   3.3648   3.4632   3.4632   3.6827   3.6827   3.8437   3.8437
     4.2239   4.2239   6.3295   6.3295   6.6796   6.6796   6.7920   6.7920
     7.1828   7.1828

          k =-0.2541-0.3224 0.0000 ( 36485 PWs)   bands (ev):

   -44.1348 -44.1348 -22.2574 -22.2574 -22.1765 -22.1765 -22.0651 -22.0650
    -7.7746  -7.4571  -7.0473  -6.8439  -6.2444  -5.3716  -4.9406  -4.7986
    -4.7138  -3.9856   0.4597   0.8943   1.0967   1.2083   1.3196   1.5339
     1.8011   1.8980   1.9457   2.4672   2.5432   3.2366   3.3500   3.5034
     3.6016   3.6632   3.7421   3.8195   3.9358   4.1428   4.1569   4.2651
     4.3251   4.6165   5.9802   6.0385   6.3392   6.5815   6.6949   6.7790
     6.9213   7.0321

          k =-0.2541-0.3224 0.1485 ( 36445 PWs)   bands (ev):

   -44.1348 -44.1347 -22.2574 -22.2574 -22.1765 -22.1765 -22.0651 -22.0650
    -7.7426  -7.5300  -6.9905  -6.8598  -6.1621  -5.6066  -4.8400  -4.7343
    -4.6402  -4.0747   0.5123   0.9335   0.9706   1.1671   1.2985   1.4386
     1.7882   2.0265   2.2876   2.4704   2.5310   2.9291   3.3922   3.4553
     3.5018   3.5444   3.6626   3.8941   3.9168   4.0866   4.2113   4.2675
     4.6975   4.8142   5.8308   6.0019   6.1567   6.3683   6.5658   6.7493
     7.1417   7.2627

          k =-0.2541-0.3224-0.2971 ( 36442 PWs)   bands (ev):

   -44.1347 -44.1347 -22.2574 -22.2574 -22.1765 -22.1765 -22.0650 -22.0650
    -7.6525  -7.6525  -6.9092  -6.9092  -5.9302  -5.9302  -4.7825  -4.7825
    -4.3175  -4.3175   0.6796   0.6796   1.1474   1.1474   1.2302   1.2302
     2.0710   2.0710   2.4480   2.4480   2.6627   2.6627   3.2441   3.2441
     3.4827   3.4827   3.7973   3.7973   4.0471   4.0471   4.2470   4.2470
     5.0405   5.0405   5.7095   5.7095   6.1548   6.1548   6.6086   6.6086
     7.3639   7.3639

          k = 0.0000-0.2579 0.0000 ( 36445 PWs)   bands (ev):

   -44.1351 -44.1351 -22.2594 -22.2593 -22.1668 -22.1668 -22.0662 -22.0661
    -7.8977  -7.5724  -7.1167  -6.8887  -6.3027  -5.4183  -4.9193  -4.8392
    -4.7588  -3.8282   0.3778   0.7673   0.9315   1.1853   1.4661   1.6243
     2.2178   2.3202   2.4714   2.7756   2.9406   3.0326   3.3142   3.4148
     3.4639   3.6479   3.7815   3.9570   4.1555   4.1899   4.2655   4.6826
     4.7811   5.3945   5.7158   5.8936   5.9244   6.0592   6.2503   6.7927
     7.0014   7.1629

          k = 0.0000-0.2579 0.1485 ( 36452 PWs)   bands (ev):

   -44.1351 -44.1351 -22.2594 -22.2593 -22.1668 -22.1668 -22.0662 -22.0661
    -7.8650  -7.6469  -7.0533  -6.9060  -6.2233  -5.6605  -4.8589  -4.7772
    -4.6198  -3.9414   0.4431   0.9253   0.9597   1.0511   1.1550   1.9225
     2.1099   2.2436   2.4135   2.8208   2.9277   3.1165   3.3149   3.4087
     3.6354   3.6609   3.8448   3.9107   4.1829   4.1907   4.2220   4.6823
     4.7348   4.9555   5.8679   6.0020   6.0398   6.0703   6.5269   6.6124
     6.8242   7.1149

          k = 0.0000-0.2579-0.2971 ( 36454 PWs)   bands (ev):

   -44.1351 -44.1351 -22.2594 -22.2594 -22.1668 -22.1668 -22.0662 -22.0662
    -7.7727  -7.7727  -6.9611  -6.9611  -5.9924  -5.9924  -4.8167  -4.8167
    -4.2384  -4.2384   0.6649   0.6649   1.0429   1.0429   1.3770   1.3770
     2.3158   2.3158   2.6643   2.6643   2.8870   2.8870   3.3911   3.3911
     3.7753   3.7753   4.0101   4.0101   4.1188   4.1188   4.3825   4.3825
     4.6914   4.6914   5.9609   5.9609   6.2731   6.2731   6.4477   6.4477
     6.9301   6.9301

          k = 1.5243 0.0000 0.0000 ( 36439 PWs)   bands (ev):

   -44.1339 -44.1338 -22.2527 -22.2527 -22.1999 -22.1999 -22.0623 -22.0622
    -7.4243  -7.1220  -6.8930  -6.7250  -6.0479  -5.2607  -5.0645  -4.6914
    -4.6049  -4.4531   0.3199   0.6167   0.6315   1.2187   1.2999   1.6018
     1.6804   1.6869   2.0264   2.0657   2.2303   2.2847   2.4387   3.2372
     3.4301   3.4460   3.5101   3.7002   3.7025   3.7275   3.7761   4.1224
     4.3677   5.0437   5.5996   5.9128   6.2335   6.7595   6.8519   6.9175
     7.2908   7.5434

          k = 1.5243 0.0000 0.1485 ( 36476 PWs)   bands (ev):

   -44.1339 -44.1338 -22.2527 -22.2527 -22.1999 -22.1999 -22.0623 -22.0622
    -7.3946  -7.1955  -6.8434  -6.7389  -5.9665  -5.4732  -4.9078  -4.6507
    -4.6439  -4.4704   0.3535   0.6406   0.7430   0.9668   1.2778   1.3788
     1.6652   1.7179   1.9988   2.0408   2.3580   2.5462   2.8302   3.1893
     3.3915   3.4668   3.4863   3.5840   3.6440   3.7223   3.7953   4.1523
     4.1574   4.5322   6.0721   6.2362   6.2731   6.6481   6.8425   6.9592
     7.1178   7.5021

          k = 1.5243 0.0000-0.2971 ( 36508 PWs)   bands (ev):

   -44.1339 -44.1339 -22.2527 -22.2527 -22.1999 -22.1999 -22.0623 -22.0623
    -7.3110  -7.3110  -6.7792  -6.7792  -5.7525  -5.7525  -4.7574  -4.7574
    -4.5413  -4.5413   0.4939   0.4939   1.0044   1.0044   1.0501   1.0501
     1.6862   1.6862   2.0052   2.0052   2.7837   2.7837   3.0964   3.0964
     3.3649   3.3649   3.4541   3.4541   3.6807   3.6807   3.8400   3.8400
     4.2076   4.2076   6.3158   6.3158   6.6772   6.6772   6.8012   6.8012
     7.1991   7.1991

          k =-0.2541-0.4514 0.0000 ( 36444 PWs)   bands (ev):

   -44.1348 -44.1347 -22.2574 -22.2574 -22.1765 -22.1765 -22.0651 -22.0650
    -7.7681  -7.4561  -7.0430  -6.8479  -6.2580  -5.3735  -4.9500  -4.7983
    -4.7086  -3.9865   0.4707   0.9035   1.2008   1.2173   1.3360   1.6187
     1.8282   1.9320   1.9469   2.3884   2.4698   3.2264   3.3603   3.4331
     3.4909   3.7063   3.7552   3.8110   3.8626   4.1044   4.1135   4.2010
     4.3185   4.6266   6.0531   6.0536   6.3673   6.5835   6.7352   6.8045
     6.8325   7.0082

          k =-0.2541-0.4514 0.1485 ( 36461 PWs)   bands (ev):

   -44.1348 -44.1347 -22.2574 -22.2574 -22.1765 -22.1765 -22.0651 -22.0650
    -7.7364  -7.5268  -6.9900  -6.8641  -6.1726  -5.6090  -4.8525  -4.7315
    -4.6355  -4.0747   0.5218   0.9456   0.9741   1.2939   1.3476   1.4688
     1.8140   2.0282   2.3334   2.3958   2.4532   2.9357   3.3270   3.3632
     3.4693   3.5559   3.7290   3.8492   3.8873   3.9640   4.2001   4.2370
     4.7363   4.7829   5.8253   6.0257   6.1637   6.3598   6.6329   6.7408
     7.1296   7.2481

          k =-0.2541-0.4514-0.2971 ( 36490 PWs)   bands (ev):

   -44.1348 -44.1348 -22.2574 -22.2574 -22.1765 -22.1765 -22.0650 -22.0650
    -7.6473  -7.6473  -6.9128  -6.9128  -5.9355  -5.9355  -4.7870  -4.7870
    -4.3154  -4.3154   0.6863   0.6863   1.1616   1.1616   1.3309   1.3309
     2.0800   2.0800   2.3990   2.3990   2.6619   2.6619   3.2430   3.2430
     3.3756   3.3756   3.8333   3.8333   3.9817   3.9817   4.2166   4.2166
     5.0529   5.0529   5.6858   5.6858   6.1389   6.1389   6.6655   6.6655
     7.3534   7.3534

          k = 0.0000-0.3869 0.0000 ( 36477 PWs)   bands (ev):

   -44.1351 -44.1351 -22.2594 -22.2593 -22.1668 -22.1668 -22.0662 -22.0661
    -7.8896  -7.5710  -7.1086  -6.8941  -6.3235  -5.4221  -4.9360  -4.8353
    -4.7514  -3.8295   0.4008   0.7789   1.0821   1.2471   1.4906   1.6949
     2.2192   2.3229   2.4695   2.7947   2.9429   3.0667   3.1293   3.1750
     3.5683   3.5766   3.7538   3.9491   4.0005   4.0255   4.2657   4.6816
     4.7542   5.3684   5.7722   5.9122   5.9914   6.1069   6.3089   6.7164
     7.0015   7.1270

          k = 0.0000-0.3869 0.1485 ( 36452 PWs)   bands (ev):

   -44.1351 -44.1351 -22.2594 -22.2593 -22.1668 -22.1668 -22.0662 -22.0661
    -7.8572  -7.6429  -7.0503  -6.9114  -6.2399  -5.6650  -4.8751  -4.7728
    -4.6149  -3.9416   0.4620   0.9506   1.0215   1.1644   1.2340   1.9398
     2.1512   2.2450   2.4136   2.8358   2.9317   3.0271   3.1261   3.3317
     3.5484   3.7041   3.8192   3.9163   4.0492   4.0719   4.1829   4.6810
     4.7186   4.9532   5.9151   6.0418   6.0672   6.0838   6.5450   6.5676
     6.8265   7.0796

          k = 0.0000-0.3869-0.2971 ( 36454 PWs)   bands (ev):

   -44.1351 -44.1351 -22.2594 -22.2594 -22.1668 -22.1668 -22.0662 -22.0662
    -7.7661  -7.7661  -6.9645  -6.9645  -6.0015  -6.0015  -4.8222  -4.8222
    -4.2364  -4.2364   0.6815   0.6815   1.1705   1.1705   1.3953   1.3953
     2.3171   2.3171   2.6781   2.6781   2.8958   2.8958   3.1707   3.1707
     3.8140   3.8140   3.9909   3.9909   4.0009   4.0009   4.3583   4.3583
     4.6867   4.6867   5.9615   5.9615   6.3009   6.3009   6.4547   6.4547
     6.8996   6.8996

          k =-2.0325 0.0000 0.0000 ( 36452 PWs)   bands (ev):

   -44.1351 -44.1351 -22.2594 -22.2593 -22.1668 -22.1668 -22.0662 -22.0661
    -7.8862  -7.5705  -7.1054  -6.8959  -6.3323  -5.4236  -4.9428  -4.8329
    -4.7493  -3.8300   0.4065   0.7839   1.2035   1.2264   1.5002   1.7378
     2.2198   2.3250   2.4687   2.8031   2.9435   3.0049   3.0584   3.0862
     3.5767   3.7034   3.7422   3.8520   3.9477   3.9667   4.2657   4.6813
     4.7432   5.3605   5.7954   5.9200   6.0269   6.1217   6.3271   6.6684
     7.0015   7.1208

          k =-2.0325 0.0000 0.1485 ( 36456 PWs)   bands (ev):

   -44.1351 -44.1351 -22.2594 -22.2593 -22.1668 -22.1668 -22.0662 -22.0661
    -7.8539  -7.6413  -7.0493  -6.9133  -6.2469  -5.6668  -4.8813  -4.7713
    -4.6131  -3.9417   0.4661   0.9597   1.0393   1.2338   1.2776   1.9477
     2.1711   2.2456   2.4136   2.8424   2.9333   2.9402   3.0074   3.3414
     3.5265   3.7823   3.8085   3.9240   3.9553   4.0064   4.1795   4.6805
     4.7120   4.9531   5.9393   6.0585   6.0697   6.0895   6.5376   6.5518
     6.8274   7.0690

          k =-2.0325 0.0000-0.2971 ( 36460 PWs)   bands (ev):

   -44.1351 -44.1351 -22.2594 -22.2594 -22.1668 -22.1668 -22.0662 -22.0662
    -7.7633  -7.7633  -6.9659  -6.9659  -6.0052  -6.0052  -4.8245  -4.8245
    -4.2355  -4.2355   0.6847   0.6847   1.2386   1.2386   1.4032   1.4032
     2.3176   2.3176   2.6708   2.6708   2.8996   2.8996   3.0750   3.0750
     3.8668   3.8668   3.9266   3.9266   3.9828   3.9828   4.3496   4.3496
     4.6848   4.6848   5.9580   5.9580   6.3104   6.3104   6.4577   6.4577
     6.8858   6.8858

     the Fermi energy is     5.5801 ev

!    total energy              =   -4240.95376496 Ry

     total all-electron energy =   -150287.647460 Ry
     estimated scf accuracy    <          1.2E-11 Ry
     smearing contrib. (-TS)   =       0.00002743 Ry
     internal energy E=F+TS    =   -4240.95379239 Ry

     The total energy is F=E-TS. E is the sum of the following terms:
     one-electron contribution =    -167.15149529 Ry
     hartree contribution      =     117.05134402 Ry
     xc contribution           =    -201.51479142 Ry
     ewald contribution        =    -221.81651423 Ry
     one-center paw contrib.   =   -3767.52233547 Ry

     convergence has been achieved in  18 iterations

     Forces acting on atoms (cartesian axes, Ry/au):

     atom    1 type  1   force =     0.00000000    0.00234304    0.00000000
     atom    2 type  1   force =     0.00000000   -0.00234304    0.00000000
     atom    3 type  2   force =     0.00000000    0.00006722    0.00000000
     atom    4 type  2   force =     0.00000000   -0.00006722    0.00000000
     atom    5 type  2   force =     0.00000000   -0.00054051   -0.00007760
     atom    6 type  2   force =     0.00000000    0.00054051    0.00007760
     atom    7 type  2   force =     0.00000000   -0.00054051    0.00007760
     atom    8 type  2   force =     0.00000000    0.00054051   -0.00007760
     atom    9 type  2   force =     0.00000000   -0.00370894   -0.00392808
     atom   10 type  2   force =     0.00000000    0.00370894    0.00392808
     atom   11 type  2   force =     0.00000000   -0.00370894    0.00392808
     atom   12 type  2   force =     0.00000000    0.00370894   -0.00392808

     Total force =     0.011355     Total SCF correction =     0.000005


     Computing stress (Cartesian axis) and pressure

          total   stress  (Ry/bohr**3)                   (kbar)     P=        0.88
   0.00000553   0.00000000   0.00000000            0.81        0.00        0.00
   0.00000000   0.00000436   0.00000000            0.00        0.64        0.00
   0.00000000   0.00000000   0.00000805            0.00        0.00        1.18

 
     init_run     :     36.06s CPU     37.46s WALL (       1 calls)
     electrons    :   1749.99s CPU   1769.33s WALL (       1 calls)
     forces       :      7.18s CPU      7.45s WALL (       1 calls)
     stress       :     41.02s CPU     41.64s WALL (       1 calls)

     Called by init_run:
     wfcinit      :     31.20s CPU     31.49s WALL (       1 calls)
     potinit      :      1.47s CPU      1.53s WALL (       1 calls)
     hinit0       :      1.72s CPU      2.48s WALL (       1 calls)

     Called by electrons:
     c_bands      :   1438.26s CPU   1447.08s WALL (      19 calls)
     sum_band     :    278.31s CPU    284.38s WALL (      19 calls)
     v_of_rho     :      8.42s CPU      9.07s WALL (      19 calls)
     newd         :     17.85s CPU     21.86s WALL (      19 calls)
     PAW_pot      :      6.72s CPU      6.73s WALL (      19 calls)
     mix_rho      :      1.55s CPU      1.60s WALL (      19 calls)

     Called by c_bands:
     init_us_2    :     14.09s CPU     14.16s WALL (    2583 calls)
     cegterg      :   1357.49s CPU   1365.58s WALL (    1197 calls)

     Called by *egterg:
     cdiaghg      :     28.90s CPU     29.03s WALL (    8325 calls)
     h_psi        :   1175.01s CPU   1182.73s WALL (    8451 calls)
     s_psi        :     53.34s CPU     53.45s WALL (    8451 calls)
     g_psi        :      2.27s CPU      2.29s WALL (    7191 calls)

     Called by h_psi:
     h_psi:calbec :     45.03s CPU     45.16s WALL (    8451 calls)
     vloc_psi     :   1072.55s CPU   1079.96s WALL (    8451 calls)
     add_vuspsi   :     53.28s CPU     53.41s WALL (    8451 calls)

     General routines
     calbec       :     58.33s CPU     58.50s WALL (    9963 calls)
     fft          :      7.41s CPU      8.14s WALL (     271 calls)
     ffts         :      0.19s CPU      0.19s WALL (      38 calls)
     fftw         :   1040.08s CPU   1047.09s WALL (  429076 calls)
     interpolate  :      0.64s CPU      0.65s WALL (      19 calls)
 
     Parallel routines
     fft_scatt_xy :    284.54s CPU    286.49s WALL (  429385 calls)
     fft_scatt_yz :    171.07s CPU    172.69s WALL (  429385 calls)
 
     PWSCF        :  30m34.94s CPU  31m 2.84s WALL

 
   This run was terminated on:  15:17:20  19Nov2021            

=------------------------------------------------------------------------------=
   JOB DONE.
=------------------------------------------------------------------------------=
