
     Program PWSCF v.6.7MaX starts on 19Nov2021 at 14:46:16 

     This program is part of the open-source Quantum ESPRESSO suite
     for quantum simulation of materials; please cite
         "P. Giannozzi et al., J. Phys.:Condens. Matter 21 395502 (2009);
         "P. Giannozzi et al., J. Phys.:Condens. Matter 29 465901 (2017);
          URL http://www.quantum-espresso.org", 
     in publications or presentations arising from this work. More details at
     http://www.quantum-espresso.org/quote

     Parallel version (MPI), running on    10 processors

     MPI processes distributed on     1 nodes
     R & G space division:  proc/nbgrp/npool/nimage =      10
     Waiting for input...
     Reading input from standard input

     Current dimensions of program PWSCF are:
     Max number of different atomic species (ntypx) = 10
     Max number of k-points (npk) =  40000
     Max angular momentum in pseudopotentials (lmaxx) =  3
     file Zr.pbe-spn-kjpaw_psl.1.0.0.UPF: wavefunction(s)  4S 4P renormalized
     file Te.pbe-n-kjpaw_psl.1.0.0.UPF: wavefunction(s)  5S 5P renormalized

     Subspace diagonalization in iterative solution of the eigenvalue problem:
     a serial algorithm will be used

     Message from routine setup:
     using ibrav=0 with symmetry is DISCOURAGED, use correct ibrav instead
 
     Parallelization info
     --------------------
     sticks:   dense  smooth     PW     G-vecs:    dense   smooth      PW
     Min         734     293     87               115340    29174    4753
     Max         735     295     88               115345    29176    4760
     Sum        7345    2937    873              1153415   291749   47557
 


     bravais-lattice index     =            0
     lattice parameter (alat)  =      15.5510  a.u.
     unit-cell volume          =    3018.5011 (a.u.)^3
     number of atoms/cell      =           12
     number of atomic types    =            2
     number of electrons       =        84.00
     number of Kohn-Sham states=           50
     kinetic-energy cutoff     =      80.0000  Ry
     charge density cutoff     =     800.0000  Ry
     scf convergence threshold =      1.0E-10
     mixing beta               =       0.7000
     number of iterations used =            8  plain     mixing
     Exchange-correlation= SLA  PW   PBX  PBC
                           (   1   4   3   4   0   0   0)

     celldm(1)=  15.551040  celldm(2)=   0.000000  celldm(3)=   0.000000
     celldm(4)=   0.000000  celldm(5)=   0.000000  celldm(6)=   0.000000

     crystal axes: (cart. coord. in units of alat)
               a(1) = (   0.246007  -0.969268   0.000000 )  
               a(2) = (   0.246007   0.969268   0.000000 )  
               a(3) = (   0.000000   0.000000   1.683031 )  

     reciprocal axes: (cart. coord. in units 2 pi/alat)
               b(1) = (  2.032465 -0.515853  0.000000 )  
               b(2) = (  2.032465  0.515853  0.000000 )  
               b(3) = (  0.000000  0.000000  0.594166 )  


     PseudoPot. # 1 for Zr read from file:
     pseudo/Zr.pbe-spn-kjpaw_psl.1.0.0.UPF
     MD5 check sum: 02112c41713a0468aff2bb39ef194e36
     Pseudo is Projector augmented-wave + core cor, Zval = 12.0
     Generated using &quot;atomic&quot; code by A. Dal Corso  v.6.2.2
     Shape of augmentation charge: PSQ
     Using radial grid of 1225 points,  6 beta functions with: 
                l(1) =   0
                l(2) =   0
                l(3) =   1
                l(4) =   1
                l(5) =   2
                l(6) =   2
     Q(r) pseudized with 0 coefficients 


     PseudoPot. # 2 for Te read from file:
     pseudo/Te.pbe-n-kjpaw_psl.1.0.0.UPF
     MD5 check sum: 66247bff2bd9dbf220fbb0bf5ab56e9d
     Pseudo is Projector augmented-wave + core cor, Zval =  6.0
     Generated using &quot;atomic&quot; code by A. Dal Corso  v.6.3
     Shape of augmentation charge: PSQ
     Using radial grid of 1245 points,  6 beta functions with: 
                l(1) =   0
                l(2) =   0
                l(3) =   1
                l(4) =   1
                l(5) =   2
                l(6) =   2
     Q(r) pseudized with 0 coefficients 


     atomic species   valence    mass     pseudopotential
        Zr            12.00    91.22000     Zr( 1.00)
        Te             6.00   127.60000     Te( 1.00)

      8 Sym. Ops., with inversion, found ( 4 have fractional translation)



   Cartesian axes

     site n.     atom                  positions (alat units)
         1           Zr  tau(   1) = (   0.0000000   0.6010274   0.4207578  )
         2           Zr  tau(   2) = (   0.2460067   0.3682408   1.2622733  )
         3           Te  tau(   3) = (   0.2460067   0.3341563   0.4207578  )
         4           Te  tau(   4) = (   0.0000000   0.6351118   1.2622733  )
         5           Te  tau(   5) = (   0.2460067   0.8119106   0.2534865  )
         6           Te  tau(   6) = (   0.0000000   0.1573575   1.4295446  )
         7           Te  tau(   7) = (   0.2460067   0.8119106   0.5880291  )
         8           Te  tau(   8) = (   0.0000000   0.1573575   1.0950020  )
         9           Te  tau(   9) = (   0.0000000   0.4229155   0.7385375  )
        10           Te  tau(  10) = (   0.2460067   0.5463527   0.9444936  )
        11           Te  tau(  11) = (   0.0000000   0.4229155   0.1029780  )
        12           Te  tau(  12) = (   0.2460067   0.5463527   1.5800530  )

     number of k points=    63  Methfessel-Paxton smearing, width (Ry)=  0.0030
                       cart. coord. in units 2pi/alat
        k(    1) = (   0.0000000   0.0000000   0.0000000), wk =   0.0078125
        k(    2) = (   0.0000000   0.0000000   0.1485415), wk =   0.0156250
        k(    3) = (   0.0000000   0.0000000  -0.2970830), wk =   0.0078125
        k(    4) = (   0.2540581   0.0644816   0.0000000), wk =   0.0312500
        k(    5) = (   0.2540581   0.0644816   0.1485415), wk =   0.0625000
        k(    6) = (   0.2540581   0.0644816  -0.2970830), wk =   0.0312500
        k(    7) = (   0.5081162   0.1289633   0.0000000), wk =   0.0312500
        k(    8) = (   0.5081162   0.1289633   0.1485415), wk =   0.0625000
        k(    9) = (   0.5081162   0.1289633  -0.2970830), wk =   0.0312500
        k(   10) = (   0.7621743   0.1934449   0.0000000), wk =   0.0312500
        k(   11) = (   0.7621743   0.1934449   0.1485415), wk =   0.0625000
        k(   12) = (   0.7621743   0.1934449  -0.2970830), wk =   0.0312500
        k(   13) = (  -1.0162324  -0.2579266   0.0000000), wk =   0.0156250
        k(   14) = (  -1.0162324  -0.2579266   0.1485415), wk =   0.0312500
        k(   15) = (  -1.0162324  -0.2579266  -0.2970830), wk =   0.0156250
        k(   16) = (   0.5081162   0.0000000   0.0000000), wk =   0.0156250
        k(   17) = (   0.5081162   0.0000000   0.1485415), wk =   0.0312500
        k(   18) = (   0.5081162   0.0000000  -0.2970830), wk =   0.0156250
        k(   19) = (   0.7621743   0.0644816   0.0000000), wk =   0.0312500
        k(   20) = (   0.7621743   0.0644816   0.1485415), wk =   0.0625000
        k(   21) = (   0.7621743   0.0644816  -0.2970830), wk =   0.0312500
        k(   22) = (   1.0162324   0.1289633   0.0000000), wk =   0.0312500
        k(   23) = (   1.0162324   0.1289633   0.1485415), wk =   0.0625000
        k(   24) = (   1.0162324   0.1289633  -0.2970830), wk =   0.0312500
        k(   25) = (  -0.7621743  -0.3224082   0.0000000), wk =   0.0312500
        k(   26) = (  -0.7621743  -0.3224082   0.1485415), wk =   0.0625000
        k(   27) = (  -0.7621743  -0.3224082  -0.2970830), wk =   0.0312500
        k(   28) = (  -0.5081162  -0.2579266   0.0000000), wk =   0.0312500
        k(   29) = (  -0.5081162  -0.2579266   0.1485415), wk =   0.0625000
        k(   30) = (  -0.5081162  -0.2579266  -0.2970830), wk =   0.0312500
        k(   31) = (  -0.2540581  -0.1934449   0.0000000), wk =   0.0312500
        k(   32) = (  -0.2540581  -0.1934449   0.1485415), wk =   0.0625000
        k(   33) = (  -0.2540581  -0.1934449  -0.2970830), wk =   0.0312500
        k(   34) = (   0.0000000  -0.1289633   0.0000000), wk =   0.0156250
        k(   35) = (   0.0000000  -0.1289633   0.1485415), wk =   0.0312500
        k(   36) = (   0.0000000  -0.1289633  -0.2970830), wk =   0.0156250
        k(   37) = (   1.0162324   0.0000000   0.0000000), wk =   0.0156250
        k(   38) = (   1.0162324   0.0000000   0.1485415), wk =   0.0312500
        k(   39) = (   1.0162324   0.0000000  -0.2970830), wk =   0.0156250
        k(   40) = (   1.2702905   0.0644816   0.0000000), wk =   0.0312500
        k(   41) = (   1.2702905   0.0644816   0.1485415), wk =   0.0625000
        k(   42) = (   1.2702905   0.0644816  -0.2970830), wk =   0.0312500
        k(   43) = (  -0.5081162  -0.3868899   0.0000000), wk =   0.0312500
        k(   44) = (  -0.5081162  -0.3868899   0.1485415), wk =   0.0625000
        k(   45) = (  -0.5081162  -0.3868899  -0.2970830), wk =   0.0312500
        k(   46) = (  -0.2540581  -0.3224082   0.0000000), wk =   0.0312500
        k(   47) = (  -0.2540581  -0.3224082   0.1485415), wk =   0.0625000
        k(   48) = (  -0.2540581  -0.3224082  -0.2970830), wk =   0.0312500
        k(   49) = (   0.0000000  -0.2579266   0.0000000), wk =   0.0156250
        k(   50) = (   0.0000000  -0.2579266   0.1485415), wk =   0.0312500
        k(   51) = (   0.0000000  -0.2579266  -0.2970830), wk =   0.0156250
        k(   52) = (   1.5243485   0.0000000   0.0000000), wk =   0.0156250
        k(   53) = (   1.5243485   0.0000000   0.1485415), wk =   0.0312500
        k(   54) = (   1.5243485   0.0000000  -0.2970830), wk =   0.0156250
        k(   55) = (  -0.2540581  -0.4513715   0.0000000), wk =   0.0312500
        k(   56) = (  -0.2540581  -0.4513715   0.1485415), wk =   0.0625000
        k(   57) = (  -0.2540581  -0.4513715  -0.2970830), wk =   0.0312500
        k(   58) = (   0.0000000  -0.3868899   0.0000000), wk =   0.0156250
        k(   59) = (   0.0000000  -0.3868899   0.1485415), wk =   0.0312500
        k(   60) = (   0.0000000  -0.3868899  -0.2970830), wk =   0.0156250
        k(   61) = (  -2.0324647   0.0000000   0.0000000), wk =   0.0078125
        k(   62) = (  -2.0324647   0.0000000   0.1485415), wk =   0.0156250
        k(   63) = (  -2.0324647   0.0000000  -0.2970830), wk =   0.0078125

     Dense  grid:  1153415 G-vectors     FFT dimensions: ( 144, 144, 240)

     Smooth grid:   291749 G-vectors     FFT dimensions: (  90,  90, 150)

     Estimated max dynamical RAM per process >     657.19 MB

     Estimated total dynamical RAM >       6.42 GB

     Initial potential from superposition of free atoms

     starting charge   83.99353, renormalised to   84.00000
     Starting wfcs are   66 randomized atomic wfcs
     Checking if some PAW data can be deallocated... 

     total cpu time spent up to now is       43.5 secs

     Self-consistent Calculation

     iteration #  1     ecut=    80.00 Ry     beta= 0.70
     Davidson diagonalization with overlap
     ethr =  1.00E-02,  avg # of iterations =  2.1

     Threshold (ethr) on eigenvalues was too large:
     Diagonalizing with lowered threshold

     Davidson diagonalization with overlap
     ethr =  4.58E-04,  avg # of iterations =  4.0

     total cpu time spent up to now is      207.6 secs

     total energy              =   -4240.70980019 Ry
     estimated scf accuracy    <       0.44942759 Ry

     iteration #  2     ecut=    80.00 Ry     beta= 0.70
     Davidson diagonalization with overlap
     ethr =  5.35E-04,  avg # of iterations =  8.1

     total cpu time spent up to now is      324.9 secs

     total energy              =   -4240.60960066 Ry
     estimated scf accuracy    <       2.04649796 Ry

     iteration #  3     ecut=    80.00 Ry     beta= 0.70
     Davidson diagonalization with overlap
     ethr =  5.35E-04,  avg # of iterations =  5.5

     total cpu time spent up to now is      421.8 secs

     total energy              =   -4240.92634285 Ry
     estimated scf accuracy    <       0.00793638 Ry

     iteration #  4     ecut=    80.00 Ry     beta= 0.70
     Davidson diagonalization with overlap
     c_bands:  2 eigenvalues not converged
     c_bands:  2 eigenvalues not converged
     c_bands:  1 eigenvalues not converged
     c_bands:  1 eigenvalues not converged
     c_bands:  2 eigenvalues not converged
     c_bands:  1 eigenvalues not converged
     c_bands:  2 eigenvalues not converged
     c_bands:  1 eigenvalues not converged
     c_bands:  2 eigenvalues not converged
     c_bands:  2 eigenvalues not converged
     c_bands:  1 eigenvalues not converged
     c_bands:  2 eigenvalues not converged
     c_bands:  1 eigenvalues not converged
     c_bands:  1 eigenvalues not converged
     c_bands:  1 eigenvalues not converged
     c_bands:  1 eigenvalues not converged
     c_bands:  2 eigenvalues not converged
     c_bands:  1 eigenvalues not converged
     ethr =  9.45E-06,  avg # of iterations = 17.6

     total cpu time spent up to now is      605.9 secs

     total energy              =   -4240.93620594 Ry
     estimated scf accuracy    <       0.04209409 Ry

     iteration #  5     ecut=    80.00 Ry     beta= 0.70
     Davidson diagonalization with overlap
     ethr =  9.45E-06,  avg # of iterations =  6.8

     total cpu time spent up to now is      701.9 secs

     total energy              =   -4240.93803541 Ry
     estimated scf accuracy    <       0.00714385 Ry

     iteration #  6     ecut=    80.00 Ry     beta= 0.70
     Davidson diagonalization with overlap
     ethr =  8.50E-06,  avg # of iterations =  3.1

     total cpu time spent up to now is      779.6 secs

     total energy              =   -4240.93861653 Ry
     estimated scf accuracy    <       0.00101618 Ry

     iteration #  7     ecut=    80.00 Ry     beta= 0.70
     Davidson diagonalization with overlap
     ethr =  1.21E-06,  avg # of iterations = 10.2

     total cpu time spent up to now is      899.5 secs

     total energy              =   -4240.93908978 Ry
     estimated scf accuracy    <       0.00094860 Ry

     iteration #  8     ecut=    80.00 Ry     beta= 0.70
     Davidson diagonalization with overlap
     ethr =  1.13E-06,  avg # of iterations =  2.1

     total cpu time spent up to now is      971.0 secs

     total energy              =   -4240.93912706 Ry
     estimated scf accuracy    <       0.00012499 Ry

     iteration #  9     ecut=    80.00 Ry     beta= 0.70
     Davidson diagonalization with overlap
     ethr =  1.49E-07,  avg # of iterations =  6.3

     total cpu time spent up to now is     1065.9 secs

     total energy              =   -4240.93917077 Ry
     estimated scf accuracy    <       0.00002001 Ry

     iteration # 10     ecut=    80.00 Ry     beta= 0.70
     Davidson diagonalization with overlap
     ethr =  2.38E-08,  avg # of iterations =  2.6

     total cpu time spent up to now is     1140.5 secs

     total energy              =   -4240.93917336 Ry
     estimated scf accuracy    <       0.00000137 Ry

     iteration # 11     ecut=    80.00 Ry     beta= 0.70
     Davidson diagonalization with overlap
     ethr =  1.64E-09,  avg # of iterations =  7.9

     total cpu time spent up to now is     1251.8 secs

     total energy              =   -4240.93917457 Ry
     estimated scf accuracy    <       0.00000078 Ry

     iteration # 12     ecut=    80.00 Ry     beta= 0.70
     Davidson diagonalization with overlap
     ethr =  9.30E-10,  avg # of iterations =  2.3

     total cpu time spent up to now is     1323.7 secs

     total energy              =   -4240.93917459 Ry
     estimated scf accuracy    <       0.00000013 Ry

     iteration # 13     ecut=    80.00 Ry     beta= 0.70
     Davidson diagonalization with overlap
     ethr =  1.56E-10,  avg # of iterations =  6.0

     total cpu time spent up to now is     1420.1 secs

     total energy              =   -4240.93917465 Ry
     estimated scf accuracy    <       0.00000003 Ry

     iteration # 14     ecut=    80.00 Ry     beta= 0.70
     Davidson diagonalization with overlap
     ethr =  3.28E-11,  avg # of iterations =  2.4

     total cpu time spent up to now is     1492.2 secs

     total energy              =   -4240.93917465 Ry
     estimated scf accuracy    <       0.00000001 Ry

     iteration # 15     ecut=    80.00 Ry     beta= 0.70
     Davidson diagonalization with overlap
     ethr =  1.44E-11,  avg # of iterations =  5.2

     total cpu time spent up to now is     1574.4 secs

     total energy              =   -4240.93917465 Ry
     estimated scf accuracy    <          1.3E-10 Ry

     iteration # 16     ecut=    80.00 Ry     beta= 0.70
     Davidson diagonalization with overlap
     ethr =  1.50E-13,  avg # of iterations = 10.2

     total cpu time spent up to now is     1693.2 secs

     total energy              =   -4240.93917465 Ry
     estimated scf accuracy    <          5.9E-10 Ry

     iteration # 17     ecut=    80.00 Ry     beta= 0.70
     Davidson diagonalization with overlap
     ethr =  1.50E-13,  avg # of iterations =  2.2

     total cpu time spent up to now is     1757.9 secs

     total energy              =   -4240.93917465 Ry
     estimated scf accuracy    <          2.9E-10 Ry

     iteration # 18     ecut=    80.00 Ry     beta= 0.70
     Davidson diagonalization with overlap
     ethr =  1.50E-13,  avg # of iterations =  6.0

     total cpu time spent up to now is     1836.7 secs

     End of self-consistent calculation

          k = 0.0000 0.0000 0.0000 ( 36359 PWs)   bands (ev):

   -44.1468 -44.1467 -22.2614 -22.2614 -22.1719 -22.1719 -22.0827 -22.0825
    -8.2052  -7.9979  -7.1309  -6.9546  -6.1044  -5.4064  -4.7918  -4.7426
    -4.7212  -3.7739   0.2293   0.7891   0.8284   1.1586   1.2952   1.5347
     1.8670   1.9895   2.2655   2.8059   2.9161   2.9832   3.2625   3.3733
     3.8413   3.9355   4.0860   4.0995   4.3404   4.3528   4.4590   4.7017
     4.7343   5.3149   5.6295   5.8733   5.9040   5.9168   6.0485   6.7307
     7.0899   7.2849

          k = 0.0000 0.0000 0.1485 ( 36415 PWs)   bands (ev):

   -44.1468 -44.1467 -22.2614 -22.2614 -22.1719 -22.1719 -22.0826 -22.0825
    -8.1805  -8.0358  -7.0946  -6.9726  -6.0409  -5.5862  -4.7826  -4.7495
    -4.5139  -3.8827   0.3070   0.8490   0.9280   0.9339   1.1154   1.8577
     1.8825   1.9686   2.0063   2.8260   2.9032   3.0333   3.3855   3.4662
     3.7948   3.9843   4.0548   4.1139   4.2762   4.3783   4.4646   4.7016
     4.7273   4.8669   5.8413   5.8673   5.8736   6.1932   6.3011   6.5869
     6.8991   7.1172

          k = 0.0000 0.0000-0.2971 ( 36410 PWs)   bands (ev):

   -44.1467 -44.1467 -22.2614 -22.2614 -22.1719 -22.1719 -22.0826 -22.0826
    -8.1144  -8.1144  -7.0248  -7.0248  -5.8551  -5.8551  -4.7660  -4.7660
    -4.1644  -4.1644   0.5380   0.5380   0.9757   0.9757   1.3459   1.3459
     1.9229   1.9229   2.5563   2.5563   2.8681   2.8681   3.6048   3.6048
     3.9300   3.9300   4.1166   4.1166   4.3017   4.3017   4.4427   4.4427
     4.7119   4.7119   5.8649   5.8649   6.2182   6.2182   6.5309   6.5309
     6.7777   6.7777

          k = 0.2541 0.0645 0.0000 ( 36396 PWs)   bands (ev):

   -44.1464 -44.1464 -22.2595 -22.2595 -22.1814 -22.1814 -22.0816 -22.0814
    -8.0800  -7.8750  -7.0661  -6.9053  -6.0455  -5.3582  -4.7751  -4.7440
    -4.6966  -3.9544   0.3094   0.8997   0.9293   0.9526   1.2607   1.5101
     1.5153   1.5526   1.7755   2.5932   2.6242   3.2049   3.2872   3.7003
     3.7811   3.7895   3.8822   3.9038   4.0761   4.2662   4.3391   4.4216
     4.4591   4.5970   5.9285   5.9811   6.1624   6.4860   6.4977   6.6871
     7.0461   7.2314

          k = 0.2541 0.0645 0.1485 ( 36423 PWs)   bands (ev):

   -44.1464 -44.1464 -22.2595 -22.2595 -22.1814 -22.1814 -22.0815 -22.0814
    -8.0555  -7.9126  -7.0328  -6.9217  -5.9817  -5.5347  -4.7466  -4.7056
    -4.5722  -4.0399   0.3760   0.8028   0.9100   0.9926   1.1851   1.2185
     1.6425   1.7156   2.0830   2.5940   2.6060   2.9477   3.4141   3.4310
     3.5199   3.8484   3.9675   4.0287   4.0639   4.2158   4.4038   4.4370
     4.6820   4.7343   5.8847   6.0099   6.1216   6.2286   6.2994   6.8060
     7.2109   7.2447

          k = 0.2541 0.0645-0.2971 ( 36436 PWs)   bands (ev):

   -44.1464 -44.1464 -22.2595 -22.2595 -22.1814 -22.1814 -22.0815 -22.0815
    -7.9903  -7.9903  -6.9692  -6.9692  -5.7976  -5.7976  -4.7259  -4.7259
    -4.2702  -4.2702   0.5635   0.5635   0.9756   0.9756   1.1113   1.1113
     1.7740   1.7740   2.4873   2.4873   2.6494   2.6494   3.2726   3.2726
     3.6796   3.6796   4.0070   4.0070   4.1689   4.1689   4.4309   4.4309
     4.9241   4.9241   5.7936   5.7936   6.1422   6.1422   6.4713   6.4713
     7.3607   7.3607

          k = 0.5081 0.1290 0.0000 ( 36499 PWs)   bands (ev):

   -44.1455 -44.1455 -22.2548 -22.2548 -22.2044 -22.2044 -22.0789 -22.0788
    -7.7139  -7.5143  -6.9115  -6.7828  -5.8765  -5.2392  -4.9986  -4.6314
    -4.5844  -4.4826   0.0462   0.4644   0.6968   0.9996   1.1632   1.3051
     1.6331   1.7136   1.7881   2.0806   2.1445   2.3954   2.5613   3.4280
     3.4839   3.5537   3.5689   3.6699   3.7664   3.8532   3.9941   4.2240
     4.3134   4.8745   5.8293   6.1607   6.2723   6.6091   6.6442   7.0482
     7.4361   7.5525

          k = 0.5081 0.1290 0.1485 ( 36476 PWs)   bands (ev):

   -44.1455 -44.1455 -22.2548 -22.2548 -22.2044 -22.2044 -22.0789 -22.0788
    -7.6904  -7.5515  -6.8843  -6.7959  -5.8156  -5.4127  -4.8585  -4.6204
    -4.6056  -4.4983   0.0993   0.4365   0.7782   0.8641   1.1692   1.2682
     1.4011   1.5804   2.0039   2.0910   2.3203   2.4900   2.8617   3.3713
     3.4536   3.4978   3.5311   3.6826   3.7573   3.7875   3.8751   4.2554
     4.2990   4.4667   6.2386   6.2840   6.4291   6.6088   6.7007   6.9193
     7.2898   7.5265

          k = 0.5081 0.1290-0.2971 ( 36466 PWs)   bands (ev):

   -44.1455 -44.1455 -22.2548 -22.2548 -22.2044 -22.2044 -22.0789 -22.0789
    -7.6273  -7.6273  -6.8336  -6.8336  -5.6466  -5.6466  -4.7088  -4.7088
    -4.5494  -4.5494   0.2585   0.2585   0.9652   0.9652   0.9892   0.9892
     1.4611   1.4611   2.0549   2.0549   2.6580   2.6580   3.1851   3.1851
     3.3897   3.3897   3.5815   3.5815   3.7555   3.7555   3.9063   3.9063
     4.3370   4.3370   6.4737   6.4737   6.5713   6.5713   6.8854   6.8854
     7.2368   7.2368

          k = 0.7622 0.1934 0.0000 ( 36521 PWs)   bands (ev):

   -44.1446 -44.1446 -22.2500 -22.2500 -22.2272 -22.2272 -22.0763 -22.0762
    -7.1547  -6.9439  -6.7661  -6.6333  -5.7271  -5.5135  -5.1494  -5.1424
    -4.5043  -4.4664  -0.2059   0.0230   0.2311   0.9235   0.9283   1.2977
     1.4884   1.5979   2.0118   2.1930   2.2279   2.2444   2.4515   2.8103
     2.9841   3.2440   3.3569   3.4671   3.5123   3.6686   3.7392   3.7470
     3.8593   4.5838   6.1499   6.4513   6.5477   6.9351   6.9600   7.0176
     7.3862   7.6351

          k = 0.7622 0.1934 0.1485 ( 36503 PWs)   bands (ev):

   -44.1446 -44.1446 -22.2500 -22.2500 -22.2272 -22.2272 -22.0763 -22.0762
    -7.1327  -6.9918  -6.7311  -6.6452  -5.6923  -5.5398  -5.1528  -5.1497
    -4.4969  -4.4704  -0.1721   0.1297   0.1537   0.7917   0.9511   1.2473
     1.4979   1.6001   2.0004   2.0328   2.1434   2.5784   2.7027   2.8960
     2.9442   3.0339   3.2728   3.3568   3.5111   3.6050   3.7447   3.9302
     3.9857   4.4647   5.9822   6.4365   6.7423   6.8860   7.0349   7.0709
     7.1789   7.6608

          k = 0.7622 0.1934-0.2971 ( 36522 PWs)   bands (ev):

   -44.1446 -44.1446 -22.2500 -22.2500 -22.2272 -22.2272 -22.0762 -22.0762
    -7.0720  -7.0720  -6.6799  -6.6799  -5.6121  -5.6121  -5.1564  -5.1564
    -4.4820  -4.4820  -0.0467  -0.0467   0.4552   0.4552   1.0792   1.0792
     1.5563   1.5563   1.9969   1.9969   2.4346   2.4346   2.8450   2.8450
     2.9626   2.9626   3.2713   3.2713   3.5955   3.5955   3.9584   3.9584
     4.0673   4.0673   6.3606   6.3606   6.5249   6.5249   7.0624   7.0624
     7.5562   7.5562

          k =-1.0162-0.2579 0.0000 ( 36506 PWs)   bands (ev):

   -44.1443 -44.1443 -22.2480 -22.2480 -22.2367 -22.2367 -22.0752 -22.0752
    -6.7581  -6.7371  -6.2523  -6.2406  -6.2327  -6.2282  -5.1942  -5.1936
    -4.4463  -4.4168  -0.1353  -0.1162   0.1708   0.1923   1.0113   1.0190
     1.4667   1.6598   2.2128   2.3752   2.3985   2.4251   2.7956   2.8322
     2.8337   2.8698   3.1801   3.2367   3.3019   3.3574   3.4361   3.6220
     3.9518   4.2135   6.6700   6.7400   6.7806   6.7985   7.1147   7.2103
     7.2117   7.2804

          k =-1.0162-0.2579 0.1485 ( 36506 PWs)   bands (ev):

   -44.1443 -44.1443 -22.2480 -22.2480 -22.2367 -22.2367 -22.0752 -22.0752
    -6.7533  -6.7382  -6.2853  -6.2780  -6.1991  -6.1948  -5.1925  -5.1922
    -4.4443  -4.4234  -0.2283  -0.2224   0.3609   0.3690   1.0067   1.0166
     1.4594   1.5906   2.0691   2.1996   2.3427   2.3932   2.6479   2.6657
     2.9262   3.0316   3.1011   3.2088   3.5232   3.5535   3.5843   3.7061
     4.0879   4.2372   6.2568   6.2784   6.5764   6.6536   7.2218   7.2297
     7.4372   7.5074

          k =-1.0162-0.2579-0.2971 ( 36528 PWs)   bands (ev):

   -44.1443 -44.1443 -22.2480 -22.2480 -22.2367 -22.2367 -22.0752 -22.0752
    -6.7438  -6.7438  -6.2996  -6.2996  -6.1806  -6.1806  -5.1908  -5.1908
    -4.4361  -4.4361  -0.2865  -0.2865   0.5420   0.5420   0.9772   0.9772
     1.5045   1.5045   1.9319   1.9319   2.3482   2.3482   2.7589   2.7589
     2.8213   2.8213   3.1955   3.1955   3.6308   3.6308   3.7827   3.7827
     4.3115   4.3115   5.8979   5.8979   6.5190   6.5190   7.2392   7.2392
     7.5738   7.5738

          k = 0.5081 0.0000 0.0000 ( 36503 PWs)   bands (ev):

   -44.1455 -44.1455 -22.2548 -22.2548 -22.2044 -22.2044 -22.0789 -22.0788
    -7.7160  -7.5147  -6.9118  -6.7815  -5.8734  -5.2386  -4.9962  -4.6247
    -4.5922  -4.4822   0.0508   0.4581   0.6964   1.0165   1.1592   1.2591
     1.6274   1.7035   1.7749   2.0879   2.1404   2.3827   2.5641   3.4204
     3.5098   3.5677   3.5919   3.6441   3.7786   3.9043   3.9748   4.2614
     4.3163   4.8655   5.8355   6.1363   6.3053   6.5724   6.5920   7.0860
     7.4420   7.5768

          k = 0.5081 0.0000 0.1485 ( 36453 PWs)   bands (ev):

   -44.1455 -44.1455 -22.2548 -22.2548 -22.2044 -22.2044 -22.0789 -22.0788
    -7.6923  -7.5524  -6.8840  -6.7946  -5.8131  -5.4120  -4.8550  -4.6211
    -4.6047  -4.5002   0.1026   0.4302   0.7809   0.8695   1.1816   1.2476
     1.3650   1.5580   2.0031   2.1053   2.3103   2.4747   2.8622   3.3877
     3.4713   3.4832   3.5429   3.7013   3.7427   3.8470   3.8491   4.2985
     4.3095   4.4501   6.2257   6.2947   6.4480   6.5647   6.6626   6.9531
     7.3037   7.5424

          k = 0.5081 0.0000-0.2971 ( 36452 PWs)   bands (ev):

   -44.1455 -44.1455 -22.2548 -22.2548 -22.2044 -22.2044 -22.0789 -22.0789
    -7.6288  -7.6288  -6.8325  -6.8325  -5.6451  -5.6451  -4.7054  -4.7054
    -4.5519  -4.5519   0.2582   0.2582   0.9650   0.9650   0.9931   0.9931
     1.4268   1.4268   2.0591   2.0591   2.6476   2.6476   3.1880   3.1880
     3.3983   3.3983   3.5854   3.5854   3.7865   3.7865   3.8948   3.8948
     4.3548   4.3548   6.4881   6.4881   6.5355   6.5355   6.9037   6.9037
     7.2380   7.2380

          k = 0.7622 0.0645 0.0000 ( 36505 PWs)   bands (ev):

   -44.1446 -44.1446 -22.2500 -22.2500 -22.2272 -22.2272 -22.0763 -22.0762
    -7.1600  -6.9448  -6.7635  -6.6295  -5.7276  -5.5114  -5.1479  -5.1431
    -4.4933  -4.4782  -0.1972   0.0208   0.2403   0.9137   0.9586   1.3109
     1.4574   1.5601   1.9745   2.1898   2.2511   2.2638   2.3904   2.7861
     2.9745   3.2883   3.3670   3.4724   3.5786   3.6813   3.7002   3.7447
     3.8381   4.6066   6.1473   6.4228   6.5710   6.9330   6.9774   6.9909
     7.3943   7.6729

          k = 0.7622 0.0645 0.1485 ( 36509 PWs)   bands (ev):

   -44.1446 -44.1446 -22.2500 -22.2500 -22.2272 -22.2272 -22.0763 -22.0762
    -7.1377  -6.9940  -6.7274  -6.6412  -5.6929  -5.5386  -5.1515  -5.1498
    -4.4891  -4.4787  -0.1637   0.1400   0.1483   0.7814   0.9785   1.2604
     1.4694   1.5966   1.9737   1.9947   2.1175   2.5801   2.7034   2.8857
     2.9313   3.0388   3.3129   3.3608   3.5562   3.5952   3.7152   3.9653
     3.9764   4.4576   6.0064   6.4129   6.7597   6.8866   7.0085   7.1112
     7.1510   7.6862

          k = 0.7622 0.0645-0.2971 ( 36472 PWs)   bands (ev):

   -44.1446 -44.1446 -22.2500 -22.2500 -22.2272 -22.2272 -22.0762 -22.0762
    -7.0760  -7.0760  -6.6755  -6.6755  -5.6122  -5.6122  -5.1555  -5.1555
    -4.4822  -4.4822  -0.0384  -0.0384   0.4484   0.4484   1.0986   1.0986
     1.5513   1.5513   1.9435   1.9435   2.4308   2.4308   2.8496   2.8496
     2.9410   2.9410   3.3213   3.3213   3.5924   3.5924   3.9684   3.9684
     4.0529   4.0529   6.3882   6.3882   6.5237   6.5237   7.0326   7.0326
     7.5834   7.5834

          k = 1.0162 0.1290 0.0000 ( 36514 PWs)   bands (ev):

   -44.1443 -44.1443 -22.2480 -22.2480 -22.2367 -22.2367 -22.0752 -22.0752
    -6.7581  -6.7371  -6.2522  -6.2408  -6.2327  -6.2282  -5.1942  -5.1937
    -4.4463  -4.4168  -0.1410  -0.1105   0.1681   0.1950   1.0031   1.0281
     1.4737   1.6495   2.2089   2.3813   2.4032   2.4179   2.7689   2.8366
     2.8629   2.8775   3.2009   3.2023   3.2922   3.3431   3.4784   3.6073
     3.9347   4.2303   6.6639   6.7494   6.7636   6.8154   7.1397   7.2103
     7.2138   7.2591

          k = 1.0162 0.1290 0.1485 ( 36524 PWs)   bands (ev):

   -44.1443 -44.1443 -22.2480 -22.2480 -22.2367 -22.2367 -22.0752 -22.0752
    -6.7533  -6.7382  -6.2852  -6.2780  -6.1990  -6.1948  -5.1925  -5.1922
    -4.4443  -4.4234  -0.2307  -0.2203   0.3621   0.3683   1.0050   1.0184
     1.4658   1.5840   2.0777   2.1828   2.3459   2.3929   2.6256   2.6945
     2.9234   3.0432   3.1014   3.2001   3.5119   3.5361   3.6228   3.6981
     4.0667   4.2566   6.2522   6.2882   6.5727   6.6559   7.2242   7.2296
     7.4479   7.4980

          k = 1.0162 0.1290-0.2971 ( 36516 PWs)   bands (ev):

   -44.1443 -44.1443 -22.2480 -22.2480 -22.2367 -22.2367 -22.0752 -22.0752
    -6.7438  -6.7438  -6.2996  -6.2996  -6.1807  -6.1807  -5.1908  -5.1908
    -4.4361  -4.4361  -0.2866  -0.2866   0.5423   0.5423   0.9770   0.9770
     1.5057   1.5057   1.9325   1.9325   2.3421   2.3421   2.7381   2.7381
     2.8543   2.8543   3.1863   3.1863   3.6324   3.6324   3.7820   3.7820
     4.3121   4.3121   5.9007   5.9007   6.5181   6.5181   7.2401   7.2401
     7.5748   7.5748

          k =-0.7622-0.3224 0.0000 ( 36511 PWs)   bands (ev):

   -44.1446 -44.1446 -22.2500 -22.2500 -22.2272 -22.2272 -22.0763 -22.0762
    -7.1469  -6.9426  -6.7706  -6.6382  -5.7265  -5.5165  -5.1508  -5.1419
    -4.5128  -4.4569  -0.2179   0.0266   0.2178   0.8946   0.9373   1.2816
     1.5033   1.6660   2.0888   2.1882   2.2131   2.2457   2.4658   2.8473
     2.9936   3.2113   3.3437   3.4628   3.4904   3.6242   3.6860   3.7122
     3.9812   4.5437   6.1535   6.4788   6.5416   6.8542   7.0005   7.0853
     7.3633   7.5825

          k =-0.7622-0.3224 0.1485 ( 36492 PWs)   bands (ev):

   -44.1446 -44.1446 -22.2500 -22.2500 -22.2272 -22.2272 -22.0763 -22.0762
    -7.1254  -6.9887  -6.7368  -6.6508  -5.6916  -5.5415  -5.1542  -5.1501
    -4.5028  -4.4638  -0.1838   0.1200   0.1564   0.8059   0.9197   1.2292
     1.5254   1.6129   2.0086   2.1204   2.1850   2.5773   2.6776   2.9183
     2.9491   3.0543   3.2354   3.3315   3.4751   3.5841   3.7654   3.8790
     4.0223   4.4729   5.9502   6.4739   6.7101   6.8823   7.0228   7.0998
     7.2035   7.6050

          k =-0.7622-0.3224-0.2971 ( 36508 PWs)   bands (ev):

   -44.1446 -44.1446 -22.2500 -22.2500 -22.2272 -22.2272 -22.0762 -22.0762
    -7.0663  -7.0663  -6.6862  -6.6862  -5.6119  -5.6119  -5.1576  -5.1576
    -4.4818  -4.4818  -0.0580  -0.0580   0.4642   0.4642   1.0561   1.0561
     1.5642   1.5642   2.0623   2.0623   2.4525   2.4525   2.8398   2.8398
     2.9930   2.9930   3.2018   3.2018   3.5928   3.5928   3.9201   3.9201
     4.1108   4.1108   6.3263   6.3263   6.5244   6.5244   7.1097   7.1097
     7.5046   7.5046

          k =-0.5081-0.2579 0.0000 ( 36480 PWs)   bands (ev):

   -44.1455 -44.1455 -22.2548 -22.2548 -22.2044 -22.2044 -22.0789 -22.0788
    -7.7088  -7.5133  -6.9111  -6.7854  -5.8838  -5.2405  -5.0045  -4.6411
    -4.5717  -4.4838   0.0355   0.4790   0.6963   0.9726   1.1726   1.4127
     1.6430   1.7470   1.8208   2.0681   2.1441   2.4222   2.5525   3.3904
     3.4498   3.5467   3.5492   3.7023   3.7047   3.7669   4.0405   4.1357
     4.3033   4.8938   5.8166   6.1805   6.2337   6.7033   6.7691   6.9601
     7.4149   7.4986

          k =-0.5081-0.2579 0.1485 ( 36485 PWs)   bands (ev):

   -44.1455 -44.1455 -22.2548 -22.2548 -22.2044 -22.2044 -22.0789 -22.0788
    -7.6856  -7.5495  -6.8853  -6.7987  -5.8216  -5.4146  -4.8666  -4.6186
    -4.6080  -4.4940   0.0916   0.4515   0.7723   0.8500   1.1588   1.2972
     1.4972   1.6432   1.9944   2.0663   2.3411   2.5211   2.8596   3.3058
     3.4496   3.5008   3.5158   3.6502   3.6731   3.7741   3.9245   4.1712
     4.2650   4.4954   6.2477   6.2735   6.3910   6.7048   6.8039   6.8468
     7.2485   7.4934

          k =-0.5081-0.2579-0.2971 ( 36478 PWs)   bands (ev):

   -44.1455 -44.1455 -22.2548 -22.2548 -22.2044 -22.2044 -22.0789 -22.0789
    -7.6237  -7.6237  -6.8362  -6.8362  -5.6501  -5.6501  -4.7167  -4.7167
    -4.5437  -4.5437   0.2593   0.2593   0.9643   0.9643   0.9827   0.9827
     1.5513   1.5513   2.0392   2.0392   2.6890   2.6890   3.1595   3.1595
     3.3722   3.3722   3.5583   3.5583   3.7052   3.7052   3.9305   3.9305
     4.2965   4.2965   6.4406   6.4406   6.6489   6.6489   6.8448   6.8448
     7.2413   7.2413

          k =-0.2541-0.1934 0.0000 ( 36410 PWs)   bands (ev):

   -44.1464 -44.1464 -22.2595 -22.2595 -22.1814 -22.1814 -22.0816 -22.0814
    -8.0765  -7.8743  -7.0624  -6.9065  -6.0569  -5.3620  -4.7944  -4.7422
    -4.6823  -3.9552   0.3324   0.8950   0.9335   1.0180   1.2875   1.5397
     1.5410   1.5670   1.7972   2.5627   2.6145   3.1976   3.3436   3.6794
     3.7279   3.7489   3.8737   3.8876   3.9171   4.1974   4.3152   4.3615
     4.3809   4.6405   5.9865   6.0241   6.2420   6.4851   6.5036   6.7494
     7.0158   7.1540

          k =-0.2541-0.1934 0.1485 ( 36427 PWs)   bands (ev):

   -44.1464 -44.1464 -22.2595 -22.2595 -22.1814 -22.1814 -22.0815 -22.0814
    -8.0523  -7.9112  -7.0304  -6.9227  -5.9916  -5.5391  -4.7625  -4.6978
    -4.5682  -4.0400   0.3990   0.8045   0.9178   1.0615   1.2015   1.2556
     1.6466   1.7276   2.1166   2.5627   2.6014   2.9443   3.4273   3.4721
     3.5322   3.7671   3.8519   3.9084   4.0197   4.1845   4.3644   4.3830
     4.6452   4.7740   5.8880   6.0287   6.1283   6.3029   6.3689   6.8048
     7.1716   7.2364

          k =-0.2541-0.1934-0.2971 ( 36422 PWs)   bands (ev):

   -44.1464 -44.1464 -22.2595 -22.2595 -22.1814 -22.1814 -22.0815 -22.0815
    -7.9878  -7.9878  -6.9691  -6.9691  -5.8044  -5.8044  -4.7294  -4.7294
    -4.2689  -4.2689   0.5826   0.5826   0.9903   0.9903   1.1563   1.1563
     1.7817   1.7817   2.4878   2.4878   2.6506   2.6506   3.2792   3.2792
     3.6957   3.6957   3.8459   3.8459   4.1440   4.1440   4.3777   4.3777
     4.9402   4.9402   5.7679   5.7679   6.1893   6.1893   6.5095   6.5095
     7.3504   7.3504

          k = 0.0000-0.1290 0.0000 ( 36417 PWs)   bands (ev):

   -44.1468 -44.1467 -22.2614 -22.2614 -22.1719 -22.1719 -22.0827 -22.0825
    -8.2034  -7.9975  -7.1282  -6.9551  -6.1118  -5.4092  -4.8015  -4.7444
    -4.7117  -3.7743   0.2447   0.7922   0.8690   1.1698   1.3067   1.5668
     1.8668   1.9891   2.2629   2.8128   2.9195   2.9848   3.2606   3.4121
     3.8117   3.9241   3.9528   4.0129   4.2868   4.3531   4.4127   4.6887
     4.7331   5.2925   5.6485   5.9242   5.9288   5.9648   6.0564   6.7474
     7.0900   7.2284

          k = 0.0000-0.1290 0.1485 ( 36419 PWs)   bands (ev):

   -44.1468 -44.1467 -22.2614 -22.2614 -22.1719 -22.1719 -22.0826 -22.0825
    -8.1788  -8.0351  -7.0927  -6.9729  -6.0474  -5.5893  -4.7914  -4.7441
    -4.5129  -3.8828   0.3229   0.8935   0.9342   0.9381   1.1365   1.8620
     1.8823   1.9682   2.0240   2.8324   2.9071   3.0382   3.3682   3.5052
     3.7953   3.9287   3.9735   4.0044   4.2721   4.3240   4.4203   4.6936
     4.7259   4.8608   5.8592   5.8965   5.9229   6.1994   6.3118   6.5992
     6.9003   7.0812

          k = 0.0000-0.1290-0.2971 ( 36464 PWs)   bands (ev):

   -44.1468 -44.1468 -22.2614 -22.2614 -22.1719 -22.1719 -22.0826 -22.0826
    -8.1130  -8.1130  -7.0243  -7.0243  -5.8597  -5.8597  -4.7676  -4.7676
    -4.1640  -4.1640   0.5561   0.5561   1.0012   1.0012   1.3508   1.3508
     1.9226   1.9226   2.5688   2.5688   2.8732   2.8732   3.6109   3.6109
     3.8661   3.8661   4.1079   4.1079   4.2216   4.2216   4.4250   4.4250
     4.7089   4.7089   5.8980   5.8980   6.2316   6.2316   6.5344   6.5344
     6.7669   6.7669

          k = 1.0162 0.0000 0.0000 ( 36499 PWs)   bands (ev):

   -44.1443 -44.1442 -22.2480 -22.2480 -22.2367 -22.2367 -22.0752 -22.0752
    -6.7581  -6.7371  -6.2520  -6.2409  -6.2327  -6.2281  -5.1941  -5.1937
    -4.4463  -4.4168  -0.1450  -0.1063   0.1659   0.1973   0.9988   1.0331
     1.4817   1.6383   2.2052   2.3924   2.4058   2.4078   2.7571   2.8470
     2.8487   2.9087   3.1773   3.2286   3.2773   3.3215   3.5296   3.5786
     3.9196   4.2453   6.6589   6.7541   6.7579   6.8250   7.1857   7.2107
     7.2155   7.2169

          k = 1.0162 0.0000 0.1485 ( 36485 PWs)   bands (ev):

   -44.1443 -44.1442 -22.2480 -22.2480 -22.2367 -22.2367 -22.0752 -22.0752
    -6.7533  -6.7382  -6.2852  -6.2781  -6.1990  -6.1948  -5.1925  -5.1922
    -4.4443  -4.4234  -0.2324  -0.2189   0.3638   0.3671   1.0038   1.0197
     1.4731   1.5765   2.0892   2.1635   2.3508   2.3902   2.6170   2.7084
     2.9242   3.0512   3.1051   3.1892   3.4971   3.5365   3.6543   3.6829
     4.0489   4.2724   6.2498   6.2960   6.5693   6.6581   7.2278   7.2284
     7.4705   7.4767

          k = 1.0162 0.0000-0.2971 ( 36514 PWs)   bands (ev):

   -44.1443 -44.1443 -22.2480 -22.2480 -22.2367 -22.2367 -22.0752 -22.0752
    -6.7438  -6.7438  -6.2996  -6.2996  -6.1807  -6.1807  -5.1908  -5.1908
    -4.4361  -4.4361  -0.2867  -0.2867   0.5426   0.5426   0.9768   0.9768
     1.5069   1.5069   1.9332   1.9332   2.3361   2.3361   2.7254   2.7254
     2.8798   2.8798   3.1762   3.1762   3.6341   3.6341   3.7813   3.7813
     4.3127   4.3127   5.9037   5.9037   6.5173   6.5173   7.2409   7.2409
     7.5758   7.5758

          k = 1.2703 0.0645 0.0000 ( 36468 PWs)   bands (ev):

   -44.1446 -44.1446 -22.2500 -22.2500 -22.2272 -22.2272 -22.0763 -22.0762
    -7.1411  -6.9417  -6.7742  -6.6414  -5.7261  -5.5186  -5.1517  -5.1418
    -4.5173  -4.4517  -0.2262   0.0294   0.2081   0.8749   0.9469   1.2714
     1.5048   1.7165   2.1765   2.1796   2.2146   2.2528   2.4186   2.8770
     2.9957   3.1934   3.3756   3.4468   3.5067   3.5849   3.6138   3.6809
     4.0773   4.5045   6.1561   6.4820   6.5641   6.7952   7.0310   7.1506
     7.3297   7.5647

          k = 1.2703 0.0645 0.1485 ( 36490 PWs)   bands (ev):

   -44.1446 -44.1446 -22.2500 -22.2500 -22.2272 -22.2272 -22.0763 -22.0762
    -7.1200  -6.9864  -6.7412  -6.6546  -5.6911  -5.5427  -5.1550  -5.1505
    -4.5059  -4.4601  -0.1920   0.1140   0.1575   0.8157   0.9011   1.2176
     1.5360   1.6281   2.0144   2.1775   2.2310   2.5860   2.6289   2.9401
     2.9482   3.0855   3.2153   3.2989   3.4839   3.5359   3.7700   3.8379
     4.0647   4.4765   5.9295   6.5050   6.6804   6.8787   7.0023   7.1617
     7.2071   7.5545

          k = 1.2703 0.0645-0.2971 ( 36480 PWs)   bands (ev):

   -44.1446 -44.1446 -22.2500 -22.2500 -22.2272 -22.2272 -22.0762 -22.0762
    -7.0621  -7.0621  -6.6909  -6.6909  -5.6118  -5.6118  -5.1585  -5.1585
    -4.4816  -4.4816  -0.0658  -0.0658   0.4702   0.4702   1.0422   1.0422
     1.5704   1.5704   2.0993   2.0993   2.4783   2.4783   2.8375   2.8375
     3.0122   3.0122   3.1530   3.1530   3.5862   3.5862   3.8876   3.8876
     4.1464   4.1464   6.3045   6.3045   6.5231   6.5231   7.1481   7.1481
     7.4559   7.4561

          k =-0.5081-0.3869 0.0000 ( 36463 PWs)   bands (ev):

   -44.1455 -44.1455 -22.2548 -22.2548 -22.2044 -22.2044 -22.0789 -22.0788
    -7.7036  -7.5123  -6.9115  -6.7874  -5.8914  -5.2418  -5.0104  -4.6472
    -4.5626  -4.4850   0.0250   0.4931   0.6930   0.9557   1.1820   1.5389
     1.6534   1.7686   1.8550   2.0472   2.1677   2.4224   2.5405   3.2892
     3.4803   3.5331   3.5590   3.5968   3.7269   3.7376   3.9890   4.1340
     4.2905   4.9101   5.8063   6.0995   6.2999   6.8074   6.8739   6.9025
     7.3680   7.4659

          k =-0.5081-0.3869 0.1485 ( 36477 PWs)   bands (ev):

   -44.1455 -44.1455 -22.2548 -22.2548 -22.2044 -22.2044 -22.0789 -22.0788
    -7.6808  -7.5475  -6.8868  -6.8011  -5.8277  -5.4163  -4.8745  -4.6162
    -4.6108  -4.4898   0.0841   0.4660   0.7683   0.8337   1.1576   1.3182
     1.6185   1.7165   1.9644   2.0390   2.3852   2.5215   2.8553   3.2238
     3.4417   3.4869   3.5131   3.5725   3.6788   3.7480   3.9547   4.1210
     4.2211   4.5193   6.1977   6.3092   6.3674   6.7536   6.8081   6.9428
     7.1881   7.4780

          k =-0.5081-0.3869-0.2971 ( 36492 PWs)   bands (ev):

   -44.1455 -44.1455 -22.2548 -22.2548 -22.2044 -22.2044 -22.0789 -22.0789
    -7.6200  -7.6200  -6.8389  -6.8389  -5.6535  -5.6535  -4.7243  -4.7243
    -4.5384  -4.5384   0.2600   0.2600   0.9621   0.9621   0.9787   0.9787
     1.6619   1.6619   2.0068   2.0068   2.7348   2.7348   3.0910   3.0910
     3.3649   3.3649   3.5274   3.5274   3.6818   3.6818   3.9464   3.9464
     4.2632   4.2632   6.4092   6.4092   6.6968   6.6968   6.8236   6.8236
     7.2646   7.2646

          k =-0.2541-0.3224 0.0000 ( 36485 PWs)   bands (ev):

   -44.1464 -44.1464 -22.2595 -22.2595 -22.1814 -22.1814 -22.0816 -22.0814
    -8.0715  -7.8733  -7.0577  -6.9074  -6.0734  -5.3674  -4.8171  -4.7354
    -4.6709  -3.9563   0.3575   0.8958   0.9324   1.1308   1.3329   1.5562
     1.5779   1.6312   1.8307   2.4965   2.5713   3.2085   3.4347   3.5627
     3.6151   3.6818   3.7371   3.8859   3.9553   4.1336   4.1823   4.2852
     4.3437   4.6881   6.0672   6.0785   6.3088   6.4975   6.5302   6.8241
     6.9372   7.0739

          k =-0.2541-0.3224 0.1485 ( 36445 PWs)   bands (ev):

   -44.1464 -44.1464 -22.2595 -22.2595 -22.1814 -22.1814 -22.0815 -22.0814
    -8.0476  -7.9093  -7.0276  -6.9235  -6.0058  -5.5451  -4.7801  -4.6910
    -4.5633  -4.0401   0.4240   0.8073   0.9258   1.1628   1.2530   1.3139
     1.6565   1.7514   2.1698   2.4995   2.5616   2.9570   3.4225   3.4967
     3.5648   3.5940   3.6596   3.9066   3.9530   4.1238   4.2827   4.3372
     4.6350   4.8038   5.8893   6.0472   6.1428   6.3618   6.4706   6.7808
     7.1451   7.2210

          k =-0.2541-0.3224-0.2971 ( 36442 PWs)   bands (ev):

   -44.1464 -44.1464 -22.2595 -22.2595 -22.1814 -22.1814 -22.0815 -22.0815
    -7.9842  -7.9842  -6.9689  -6.9689  -5.8139  -5.8139  -4.7343  -4.7343
    -4.2669  -4.2669   0.6030   0.6030   1.0047   1.0047   1.2482   1.2482
     1.7971   1.7971   2.4748   2.4748   2.6497   2.6497   3.2832   3.2832
     3.5671   3.5671   3.8085   3.8085   4.0841   4.0841   4.3166   4.3166
     4.9612   4.9612   5.7405   5.7405   6.2081   6.2081   6.5730   6.5730
     7.3404   7.3404

          k = 0.0000-0.2579 0.0000 ( 36445 PWs)   bands (ev):

   -44.1468 -44.1467 -22.2614 -22.2614 -22.1719 -22.1719 -22.0827 -22.0825
    -8.1989  -7.9966  -7.1219  -6.9557  -6.1298  -5.4159  -4.8229  -4.7375
    -4.7018  -3.7752   0.2757   0.8006   0.9773   1.2224   1.3331   1.6359
     1.8663   1.9880   2.2577   2.8303   2.9275   2.9963   3.2466   3.5192
     3.5828   3.6756   3.8964   3.9606   4.1591   4.2837   4.3537   4.6575
     4.7302   5.2588   5.6949   5.9937   6.0078   6.0504   6.0758   6.7753
     7.0900   7.1026

          k = 0.0000-0.2579 0.1485 ( 36452 PWs)   bands (ev):

   -44.1468 -44.1467 -22.2614 -22.2614 -22.1719 -22.1719 -22.0826 -22.0825
    -8.1746  -8.0333  -7.0883  -6.9732  -6.0632  -5.5967  -4.8077  -4.7360
    -4.5104  -3.8830   0.3544   0.9403   0.9556   1.0253   1.1936   1.8731
     1.8818   1.9673   2.0673   2.8485   2.9165   3.0473   3.3345   3.5274
     3.6728   3.6916   3.9094   3.9472   4.1992   4.2617   4.2997   4.6751
     4.7226   4.8557   5.9065   5.9562   5.9961   6.2147   6.3315   6.6147
     6.9032   6.9956

          k = 0.0000-0.2579-0.2971 ( 36454 PWs)   bands (ev):

   -44.1468 -44.1468 -22.2614 -22.2614 -22.1719 -22.1719 -22.0826 -22.0826
    -8.1098  -8.1098  -7.0230  -7.0230  -5.8708  -5.8708  -4.7717  -4.7717
    -4.1629  -4.1629   0.5912   0.5912   1.0816   1.0816   1.3647   1.3647
     1.9220   1.9220   2.5995   2.5995   2.8859   2.8859   3.5088   3.5088
     3.7805   3.7805   4.0866   4.0866   4.1104   4.1104   4.3720   4.3720
     4.7021   4.7021   5.9471   5.9471   6.2648   6.2648   6.5429   6.5429
     6.7303   6.7303

          k = 1.5243 0.0000 0.0000 ( 36439 PWs)   bands (ev):

   -44.1455 -44.1455 -22.2548 -22.2548 -22.2044 -22.2044 -22.0789 -22.0788
    -7.7015  -7.5119  -6.9119  -6.7880  -5.8945  -5.2424  -5.0129  -4.6492
    -4.5594  -4.4855   0.0208   0.4989   0.6907   0.9507   1.1858   1.6079
     1.6740   1.7423   1.8697   2.0365   2.2039   2.3984   2.5345   3.2534
     3.4933   3.4974   3.5633   3.5889   3.7058   3.7661   3.9243   4.1602
     4.2848   4.9159   5.8026   6.0637   6.3314   6.8380   6.8551   6.9662
     7.3310   7.5114

          k = 1.5243 0.0000 0.1485 ( 36476 PWs)   bands (ev):

   -44.1455 -44.1455 -22.2548 -22.2548 -22.2044 -22.2044 -22.0789 -22.0788
    -7.6788  -7.5467  -6.8876  -6.8020  -5.8303  -5.4170  -4.8778  -4.6142
    -4.6130  -4.4882   0.0810   0.4718   0.7675   0.8259   1.1584   1.3258
     1.7136   1.7180   1.9515   2.0143   2.4508   2.4721   2.8516   3.1953
     3.4029   3.4901   3.5199   3.5621   3.6888   3.7325   3.9381   4.1356
     4.1907   4.5289   6.1722   6.3258   6.3618   6.7256   6.8441   7.0154
     7.1443   7.4996

          k = 1.5243 0.0000-0.2971 ( 36508 PWs)   bands (ev):

   -44.1455 -44.1455 -22.2548 -22.2548 -22.2044 -22.2044 -22.0789 -22.0789
    -7.6184  -7.6184  -6.8400  -6.8400  -5.6549  -5.6549  -4.7273  -4.7273
    -4.5363  -4.5363   0.2603   0.2603   0.9610   0.9610   0.9774   0.9774
     1.7215   1.7215   1.9811   1.9811   2.7635   2.7635   3.0433   3.0433
     3.3661   3.3661   3.5164   3.5164   3.6758   3.6758   3.9488   3.9488
     4.2532   4.2532   6.3964   6.3964   6.6991   6.6991   6.8280   6.8280
     7.2839   7.2839

          k =-0.2541-0.4514 0.0000 ( 36444 PWs)   bands (ev):

   -44.1464 -44.1464 -22.2595 -22.2595 -22.1814 -22.1814 -22.0816 -22.0814
    -8.0679  -7.8726  -7.0549  -6.9073  -6.0853  -5.3711  -4.8309  -4.7297
    -4.6660  -3.9571   0.3699   0.9016   0.9266   1.2539   1.3351   1.5669
     1.6042   1.7080   1.8662   2.4254   2.5003   3.2495   3.4121   3.4675
     3.5006   3.6719   3.8029   3.8882   3.9445   4.0429   4.1001   4.2282
     4.3331   4.7184   6.0900   6.1565   6.3265   6.5256   6.5504   6.8497
     6.8705   7.0380

          k =-0.2541-0.4514 0.1485 ( 36461 PWs)   bands (ev):

   -44.1464 -44.1464 -22.2595 -22.2595 -22.1814 -22.1814 -22.0815 -22.0814
    -8.0443  -7.9079  -7.0259  -6.9237  -6.0159  -5.5493  -4.7909  -4.6873
    -4.5602  -4.0402   0.4365   0.8100   0.9290   1.2230   1.3184   1.3699
     1.6686   1.7796   2.2245   2.4313   2.4859   2.9848   3.3576   3.4076
     3.5254   3.5435   3.7460   3.8959   3.9218   3.9917   4.2527   4.3132
     4.6316   4.8227   5.8900   6.0516   6.1681   6.3780   6.5377   6.7448
     7.1473   7.2084

          k =-0.2541-0.4514-0.2971 ( 36490 PWs)   bands (ev):

   -44.1464 -44.1464 -22.2595 -22.2595 -22.1814 -22.1814 -22.0815 -22.0815
    -7.9816  -7.9816  -6.9689  -6.9689  -5.8205  -5.8205  -4.7378  -4.7378
    -4.2655  -4.2655   0.6133   0.6133   1.0113   1.0113   1.3362   1.3362
     1.8145   1.8145   2.4410   2.4410   2.6519   2.6519   3.2657   3.2657
     3.4486   3.4486   3.8710   3.8710   4.0027   4.0027   4.2855   4.2855
     4.9753   4.9753   5.7243   5.7243   6.2039   6.2039   6.6148   6.6148
     7.3375   7.3375

          k = 0.0000-0.3869 0.0000 ( 36477 PWs)   bands (ev):

   -44.1468 -44.1467 -22.2614 -22.2614 -22.1719 -22.1719 -22.0827 -22.0825
    -8.1944  -7.9957  -7.1161  -6.9554  -6.1483  -5.4225  -4.8414  -4.7241
    -4.7013  -3.7762   0.2971   0.8103   1.1232   1.2851   1.3575   1.7108
     1.8658   1.9869   2.2541   2.8492   2.9350   3.0195   3.1708   3.2750
     3.4878   3.6767   3.8681   3.9699   4.0213   4.1099   4.3543   4.6265
     4.7276   5.2372   5.7414   6.0613   6.0737   6.0954   6.1077   6.7624
     7.0040   7.0898

          k = 0.0000-0.3869 0.1485 ( 36452 PWs)   bands (ev):

   -44.1468 -44.1467 -22.2614 -22.2614 -22.1719 -22.1719 -22.0826 -22.0825
    -8.1704  -8.0316  -7.0843  -6.9729  -6.0792  -5.6039  -4.8212  -4.7304
    -4.5083  -3.8833   0.3756   0.9571   0.9826   1.1738   1.2666   1.8813
     1.8856   1.9664   2.1145   2.8657   2.9256   3.0309   3.2116   3.3359
     3.5016   3.7712   3.9204   3.9342   4.0721   4.1390   4.2502   4.6578
     4.7194   4.8546   5.9590   6.0055   6.0371   6.2304   6.3430   6.5981
     6.9060   6.9241

          k = 0.0000-0.3869-0.2971 ( 36454 PWs)   bands (ev):

   -44.1468 -44.1468 -22.2614 -22.2614 -22.1719 -22.1719 -22.0826 -22.0826
    -8.1066  -8.1066  -7.0217  -7.0217  -5.8818  -5.8818  -4.7758  -4.7758
    -4.1618  -4.1618   0.6146   0.6146   1.1934   1.1934   1.3827   1.3827
     1.9213   1.9213   2.6302   2.6302   2.8991   2.8991   3.2566   3.2566
     3.8331   3.8331   4.0179   4.0179   4.0646   4.0646   4.3234   4.3234
     4.6958   4.6958   5.9706   5.9706   6.2971   6.2971   6.5517   6.5517
     6.6836   6.6836

          k =-2.0325 0.0000 0.0000 ( 36452 PWs)   bands (ev):

   -44.1468 -44.1467 -22.2614 -22.2614 -22.1719 -22.1719 -22.0827 -22.0825
    -8.1925  -7.9953  -7.1140  -6.9549  -6.1561  -5.4252  -4.8485  -4.7123
    -4.7080  -3.7765   0.3032   0.8148   1.2523   1.2527   1.3671   1.7553
     1.8656   1.9864   2.2530   2.8576   2.9379   3.0331   3.0791   3.1569
     3.4501   3.8426   3.8563   3.8855   3.9749   4.0139   4.3545   4.6137
     4.7266   5.2300   5.7604   6.0783   6.1036   6.1157   6.1256   6.7307
     6.9808   7.0897

          k =-2.0325 0.0000 0.1485 ( 36456 PWs)   bands (ev):

   -44.1468 -44.1467 -22.2614 -22.2614 -22.1719 -22.1719 -22.0826 -22.0825
    -8.1686  -8.0308  -7.0828  -6.9725  -6.0859  -5.6069  -4.8263  -4.7285
    -4.5075  -3.8834   0.3815   0.9648   0.9936   1.2634   1.2883   1.8811
     1.8914   1.9660   2.1388   2.8732   2.9293   2.9923   3.0960   3.2896
     3.4659   3.8818   3.9091   3.9504   3.9958   4.0328   4.2451   4.6509
     4.7182   4.8545   5.9816   6.0302   6.0453   6.2370   6.3458   6.5765
     6.9026   6.9072

          k =-2.0325 0.0000-0.2971 ( 36460 PWs)   bands (ev):

   -44.1468 -44.1468 -22.2614 -22.2614 -22.1719 -22.1719 -22.0826 -22.0826
    -8.1053  -8.1053  -7.0212  -7.0212  -5.8863  -5.8863  -4.7775  -4.7775
    -4.1613  -4.1613   0.6212   0.6212   1.2496   1.2496   1.3934   1.3934
     1.9211   1.9211   2.6417   2.6417   2.9047   2.9047   3.1384   3.1384
     3.8947   3.8947   3.9493   3.9493   4.0553   4.0553   4.3061   4.3061
     4.6933   4.6933   5.9757   5.9757   6.3097   6.3097   6.5555   6.5555
     6.6625   6.6625

     the Fermi energy is     5.6043 ev

!    total energy              =   -4240.93917465 Ry

     total all-electron energy =   -150287.632869 Ry
     estimated scf accuracy    <          1.0E-11 Ry
     smearing contrib. (-TS)   =       0.00000273 Ry
     internal energy E=F+TS    =   -4240.93917739 Ry

     The total energy is F=E-TS. E is the sum of the following terms:
     one-electron contribution =    -168.39125624 Ry
     hartree contribution      =     117.65140138 Ry
     xc contribution           =    -201.59773997 Ry
     ewald contribution        =    -221.06449093 Ry
     one-center paw contrib.   =   -3767.53709163 Ry

     convergence has been achieved in  18 iterations

     Forces acting on atoms (cartesian axes, Ry/au):

     atom    1 type  1   force =     0.00000000    0.01561117    0.00000000
     atom    2 type  1   force =     0.00000000   -0.01561117    0.00000000
     atom    3 type  2   force =     0.00000000   -0.00014030    0.00000000
     atom    4 type  2   force =     0.00000000    0.00014030    0.00000000
     atom    5 type  2   force =     0.00000000   -0.00360896   -0.00207633
     atom    6 type  2   force =     0.00000000    0.00360896    0.00207633
     atom    7 type  2   force =     0.00000000   -0.00360896    0.00207633
     atom    8 type  2   force =     0.00000000    0.00360896   -0.00207633
     atom    9 type  2   force =     0.00000000   -0.02770582   -0.03148588
     atom   10 type  2   force =     0.00000000    0.02770582    0.03148588
     atom   11 type  2   force =    -0.00000000   -0.02770582    0.03148588
     atom   12 type  2   force =     0.00000000    0.02770582   -0.03148588

     Total force =     0.087136     Total SCF correction =     0.000004


     Computing stress (Cartesian axis) and pressure

          total   stress  (Ry/bohr**3)                   (kbar)     P=        7.41
   0.00005518   0.00000000   0.00000000            8.12        0.00        0.00
   0.00000000   0.00002909   0.00000000            0.00        4.28        0.00
   0.00000000   0.00000000   0.00006679            0.00        0.00        9.82

 
     init_run     :     35.88s CPU     37.05s WALL (       1 calls)
     electrons    :   1775.84s CPU   1793.25s WALL (       1 calls)
     forces       :      6.66s CPU      6.88s WALL (       1 calls)
     stress       :     43.16s CPU     43.81s WALL (       1 calls)

     Called by init_run:
     wfcinit      :     31.13s CPU     31.41s WALL (       1 calls)
     potinit      :      1.41s CPU      1.48s WALL (       1 calls)
     hinit0       :      1.72s CPU      2.25s WALL (       1 calls)

     Called by electrons:
     c_bands      :   1445.33s CPU   1452.62s WALL (      19 calls)
     sum_band     :    296.64s CPU    302.45s WALL (      19 calls)
     v_of_rho     :      8.52s CPU      9.13s WALL (      19 calls)
     newd         :     17.89s CPU     21.80s WALL (      19 calls)
     PAW_pot      :      6.98s CPU      6.99s WALL (      19 calls)
     mix_rho      :      1.49s CPU      1.53s WALL (      19 calls)

     Called by c_bands:
     init_us_2    :     14.02s CPU     14.11s WALL (    2583 calls)
     cegterg      :   1364.79s CPU   1371.28s WALL (    1197 calls)

     Called by *egterg:
     cdiaghg      :     28.56s CPU     28.68s WALL (    8102 calls)
     h_psi        :   1178.98s CPU   1185.17s WALL (    8228 calls)
     s_psi        :     51.74s CPU     51.82s WALL (    8228 calls)
     g_psi        :      2.25s CPU      2.27s WALL (    6968 calls)

     Called by h_psi:
     h_psi:calbec :     44.61s CPU     44.72s WALL (    8228 calls)
     vloc_psi     :   1079.05s CPU   1084.94s WALL (    8228 calls)
     add_vuspsi   :     51.28s CPU     51.38s WALL (    8228 calls)

     General routines
     calbec       :     59.35s CPU     59.51s WALL (    9740 calls)
     fft          :      7.25s CPU      7.98s WALL (     271 calls)
     ffts         :      0.19s CPU      0.19s WALL (      38 calls)
     fftw         :   1093.93s CPU   1099.66s WALL (  433092 calls)
     interpolate  :      0.65s CPU      0.65s WALL (      19 calls)
 
     Parallel routines
     fft_scatt_xy :    251.40s CPU    252.89s WALL (  433401 calls)
     fft_scatt_yz :    324.26s CPU    326.02s WALL (  433401 calls)
 
     PWSCF        :  31m 2.12s CPU  31m27.48s WALL

 
   This run was terminated on:  15:17:44  19Nov2021            

=------------------------------------------------------------------------------=
   JOB DONE.
=------------------------------------------------------------------------------=
