
     Program PWSCF v.6.7MaX starts on 19Nov2021 at 14:46:16 

     This program is part of the open-source Quantum ESPRESSO suite
     for quantum simulation of materials; please cite
         "P. Giannozzi et al., J. Phys.:Condens. Matter 21 395502 (2009);
         "P. Giannozzi et al., J. Phys.:Condens. Matter 29 465901 (2017);
          URL http://www.quantum-espresso.org", 
     in publications or presentations arising from this work. More details at
     http://www.quantum-espresso.org/quote

     Parallel version (MPI), running on    10 processors

     MPI processes distributed on     1 nodes
     R & G space division:  proc/nbgrp/npool/nimage =      10
     Waiting for input...
     Reading input from standard input

     Current dimensions of program PWSCF are:
     Max number of different atomic species (ntypx) = 10
     Max number of k-points (npk) =  40000
     Max angular momentum in pseudopotentials (lmaxx) =  3
     file Zr.pbe-spn-kjpaw_psl.1.0.0.UPF: wavefunction(s)  4S 4P renormalized
     file Te.pbe-n-kjpaw_psl.1.0.0.UPF: wavefunction(s)  5S 5P renormalized

     Subspace diagonalization in iterative solution of the eigenvalue problem:
     a serial algorithm will be used

     Message from routine setup:
     using ibrav=0 with symmetry is DISCOURAGED, use correct ibrav instead
 
     Parallelization info
     --------------------
     sticks:   dense  smooth     PW     G-vecs:    dense   smooth      PW
     Min         734     293     87               115340    29174    4753
     Max         735     295     88               115345    29176    4760
     Sum        7345    2937    873              1153415   291749   47557
 


     bravais-lattice index     =            0
     lattice parameter (alat)  =      15.5510  a.u.
     unit-cell volume          =    3018.5011 (a.u.)^3
     number of atoms/cell      =           12
     number of atomic types    =            2
     number of electrons       =        84.00
     number of Kohn-Sham states=           50
     kinetic-energy cutoff     =      80.0000  Ry
     charge density cutoff     =     800.0000  Ry
     scf convergence threshold =      1.0E-10
     mixing beta               =       0.7000
     number of iterations used =            8  plain     mixing
     Exchange-correlation= SLA  PW   PBX  PBC
                           (   1   4   3   4   0   0   0)

     celldm(1)=  15.551040  celldm(2)=   0.000000  celldm(3)=   0.000000
     celldm(4)=   0.000000  celldm(5)=   0.000000  celldm(6)=   0.000000

     crystal axes: (cart. coord. in units of alat)
               a(1) = (   0.246007  -0.969268   0.000000 )  
               a(2) = (   0.246007   0.969268   0.000000 )  
               a(3) = (   0.000000   0.000000   1.683031 )  

     reciprocal axes: (cart. coord. in units 2 pi/alat)
               b(1) = (  2.032465 -0.515853  0.000000 )  
               b(2) = (  2.032465  0.515853  0.000000 )  
               b(3) = (  0.000000  0.000000  0.594166 )  


     PseudoPot. # 1 for Zr read from file:
     pseudo/Zr.pbe-spn-kjpaw_psl.1.0.0.UPF
     MD5 check sum: 02112c41713a0468aff2bb39ef194e36
     Pseudo is Projector augmented-wave + core cor, Zval = 12.0
     Generated using &quot;atomic&quot; code by A. Dal Corso  v.6.2.2
     Shape of augmentation charge: PSQ
     Using radial grid of 1225 points,  6 beta functions with: 
                l(1) =   0
                l(2) =   0
                l(3) =   1
                l(4) =   1
                l(5) =   2
                l(6) =   2
     Q(r) pseudized with 0 coefficients 


     PseudoPot. # 2 for Te read from file:
     pseudo/Te.pbe-n-kjpaw_psl.1.0.0.UPF
     MD5 check sum: 66247bff2bd9dbf220fbb0bf5ab56e9d
     Pseudo is Projector augmented-wave + core cor, Zval =  6.0
     Generated using &quot;atomic&quot; code by A. Dal Corso  v.6.3
     Shape of augmentation charge: PSQ
     Using radial grid of 1245 points,  6 beta functions with: 
                l(1) =   0
                l(2) =   0
                l(3) =   1
                l(4) =   1
                l(5) =   2
                l(6) =   2
     Q(r) pseudized with 0 coefficients 


     atomic species   valence    mass     pseudopotential
        Zr            12.00    91.22000     Zr( 1.00)
        Te             6.00   127.60000     Te( 1.00)

      8 Sym. Ops., with inversion, found ( 4 have fractional translation)



   Cartesian axes

     site n.     atom                  positions (alat units)
         1           Zr  tau(   1) = (   0.0000000   0.6006401   0.4207578  )
         2           Zr  tau(   2) = (   0.2460067   0.3686281   1.2622733  )
         3           Te  tau(   3) = (   0.2460067   0.3341486   0.4207578  )
         4           Te  tau(   4) = (   0.0000000   0.6351196   1.2622733  )
         5           Te  tau(   5) = (   0.2460067   0.8120869   0.2536068  )
         6           Te  tau(   6) = (   0.0000000   0.1571812   1.4294242  )
         7           Te  tau(   7) = (   0.2460067   0.8120869   0.5879087  )
         8           Te  tau(   8) = (   0.0000000   0.1571812   1.0951224  )
         9           Te  tau(   9) = (   0.0000000   0.4235940   0.7391848  )
        10           Te  tau(  10) = (   0.2460067   0.5456742   0.9438462  )
        11           Te  tau(  11) = (   0.0000000   0.4235940   0.1023307  )
        12           Te  tau(  12) = (   0.2460067   0.5456742   1.5807004  )

     number of k points=    63  Methfessel-Paxton smearing, width (Ry)=  0.0030
                       cart. coord. in units 2pi/alat
        k(    1) = (   0.0000000   0.0000000   0.0000000), wk =   0.0078125
        k(    2) = (   0.0000000   0.0000000   0.1485415), wk =   0.0156250
        k(    3) = (   0.0000000   0.0000000  -0.2970830), wk =   0.0078125
        k(    4) = (   0.2540581   0.0644816   0.0000000), wk =   0.0312500
        k(    5) = (   0.2540581   0.0644816   0.1485415), wk =   0.0625000
        k(    6) = (   0.2540581   0.0644816  -0.2970830), wk =   0.0312500
        k(    7) = (   0.5081162   0.1289633   0.0000000), wk =   0.0312500
        k(    8) = (   0.5081162   0.1289633   0.1485415), wk =   0.0625000
        k(    9) = (   0.5081162   0.1289633  -0.2970830), wk =   0.0312500
        k(   10) = (   0.7621743   0.1934449   0.0000000), wk =   0.0312500
        k(   11) = (   0.7621743   0.1934449   0.1485415), wk =   0.0625000
        k(   12) = (   0.7621743   0.1934449  -0.2970830), wk =   0.0312500
        k(   13) = (  -1.0162324  -0.2579266   0.0000000), wk =   0.0156250
        k(   14) = (  -1.0162324  -0.2579266   0.1485415), wk =   0.0312500
        k(   15) = (  -1.0162324  -0.2579266  -0.2970830), wk =   0.0156250
        k(   16) = (   0.5081162   0.0000000   0.0000000), wk =   0.0156250
        k(   17) = (   0.5081162   0.0000000   0.1485415), wk =   0.0312500
        k(   18) = (   0.5081162   0.0000000  -0.2970830), wk =   0.0156250
        k(   19) = (   0.7621743   0.0644816   0.0000000), wk =   0.0312500
        k(   20) = (   0.7621743   0.0644816   0.1485415), wk =   0.0625000
        k(   21) = (   0.7621743   0.0644816  -0.2970830), wk =   0.0312500
        k(   22) = (   1.0162324   0.1289633   0.0000000), wk =   0.0312500
        k(   23) = (   1.0162324   0.1289633   0.1485415), wk =   0.0625000
        k(   24) = (   1.0162324   0.1289633  -0.2970830), wk =   0.0312500
        k(   25) = (  -0.7621743  -0.3224082   0.0000000), wk =   0.0312500
        k(   26) = (  -0.7621743  -0.3224082   0.1485415), wk =   0.0625000
        k(   27) = (  -0.7621743  -0.3224082  -0.2970830), wk =   0.0312500
        k(   28) = (  -0.5081162  -0.2579266   0.0000000), wk =   0.0312500
        k(   29) = (  -0.5081162  -0.2579266   0.1485415), wk =   0.0625000
        k(   30) = (  -0.5081162  -0.2579266  -0.2970830), wk =   0.0312500
        k(   31) = (  -0.2540581  -0.1934449   0.0000000), wk =   0.0312500
        k(   32) = (  -0.2540581  -0.1934449   0.1485415), wk =   0.0625000
        k(   33) = (  -0.2540581  -0.1934449  -0.2970830), wk =   0.0312500
        k(   34) = (   0.0000000  -0.1289633   0.0000000), wk =   0.0156250
        k(   35) = (   0.0000000  -0.1289633   0.1485415), wk =   0.0312500
        k(   36) = (   0.0000000  -0.1289633  -0.2970830), wk =   0.0156250
        k(   37) = (   1.0162324   0.0000000   0.0000000), wk =   0.0156250
        k(   38) = (   1.0162324   0.0000000   0.1485415), wk =   0.0312500
        k(   39) = (   1.0162324   0.0000000  -0.2970830), wk =   0.0156250
        k(   40) = (   1.2702905   0.0644816   0.0000000), wk =   0.0312500
        k(   41) = (   1.2702905   0.0644816   0.1485415), wk =   0.0625000
        k(   42) = (   1.2702905   0.0644816  -0.2970830), wk =   0.0312500
        k(   43) = (  -0.5081162  -0.3868899   0.0000000), wk =   0.0312500
        k(   44) = (  -0.5081162  -0.3868899   0.1485415), wk =   0.0625000
        k(   45) = (  -0.5081162  -0.3868899  -0.2970830), wk =   0.0312500
        k(   46) = (  -0.2540581  -0.3224082   0.0000000), wk =   0.0312500
        k(   47) = (  -0.2540581  -0.3224082   0.1485415), wk =   0.0625000
        k(   48) = (  -0.2540581  -0.3224082  -0.2970830), wk =   0.0312500
        k(   49) = (   0.0000000  -0.2579266   0.0000000), wk =   0.0156250
        k(   50) = (   0.0000000  -0.2579266   0.1485415), wk =   0.0312500
        k(   51) = (   0.0000000  -0.2579266  -0.2970830), wk =   0.0156250
        k(   52) = (   1.5243485   0.0000000   0.0000000), wk =   0.0156250
        k(   53) = (   1.5243485   0.0000000   0.1485415), wk =   0.0312500
        k(   54) = (   1.5243485   0.0000000  -0.2970830), wk =   0.0156250
        k(   55) = (  -0.2540581  -0.4513715   0.0000000), wk =   0.0312500
        k(   56) = (  -0.2540581  -0.4513715   0.1485415), wk =   0.0625000
        k(   57) = (  -0.2540581  -0.4513715  -0.2970830), wk =   0.0312500
        k(   58) = (   0.0000000  -0.3868899   0.0000000), wk =   0.0156250
        k(   59) = (   0.0000000  -0.3868899   0.1485415), wk =   0.0312500
        k(   60) = (   0.0000000  -0.3868899  -0.2970830), wk =   0.0156250
        k(   61) = (  -2.0324647   0.0000000   0.0000000), wk =   0.0078125
        k(   62) = (  -2.0324647   0.0000000   0.1485415), wk =   0.0156250
        k(   63) = (  -2.0324647   0.0000000  -0.2970830), wk =   0.0078125

     Dense  grid:  1153415 G-vectors     FFT dimensions: ( 144, 144, 240)

     Smooth grid:   291749 G-vectors     FFT dimensions: (  90,  90, 150)

     Estimated max dynamical RAM per process >     657.19 MB

     Estimated total dynamical RAM >       6.42 GB

     Initial potential from superposition of free atoms

     starting charge   83.99353, renormalised to   84.00000
     Starting wfcs are   66 randomized atomic wfcs
     Checking if some PAW data can be deallocated... 

     total cpu time spent up to now is       43.8 secs

     Self-consistent Calculation

     iteration #  1     ecut=    80.00 Ry     beta= 0.70
     Davidson diagonalization with overlap
     ethr =  1.00E-02,  avg # of iterations =  2.2

     Threshold (ethr) on eigenvalues was too large:
     Diagonalizing with lowered threshold

     Davidson diagonalization with overlap
     ethr =  4.62E-04,  avg # of iterations =  3.9

     total cpu time spent up to now is      207.2 secs

     total energy              =   -4240.70621257 Ry
     estimated scf accuracy    <       0.45080517 Ry

     iteration #  2     ecut=    80.00 Ry     beta= 0.70
     Davidson diagonalization with overlap
     ethr =  5.37E-04,  avg # of iterations =  8.1

     total cpu time spent up to now is      322.9 secs

     total energy              =   -4240.60314129 Ry
     estimated scf accuracy    <       2.05901888 Ry

     iteration #  3     ecut=    80.00 Ry     beta= 0.70
     Davidson diagonalization with overlap
     ethr =  5.37E-04,  avg # of iterations =  5.4

     total cpu time spent up to now is      420.6 secs

     total energy              =   -4240.92469982 Ry
     estimated scf accuracy    <       0.00764672 Ry

     iteration #  4     ecut=    80.00 Ry     beta= 0.70
     Davidson diagonalization with overlap
     c_bands:  1 eigenvalues not converged
     c_bands:  1 eigenvalues not converged
     c_bands:  2 eigenvalues not converged
     c_bands:  1 eigenvalues not converged
     c_bands:  1 eigenvalues not converged
     c_bands:  2 eigenvalues not converged
     c_bands:  2 eigenvalues not converged
     c_bands:  2 eigenvalues not converged
     c_bands:  4 eigenvalues not converged
     c_bands:  4 eigenvalues not converged
     c_bands:  1 eigenvalues not converged
     c_bands:  2 eigenvalues not converged
     c_bands:  1 eigenvalues not converged
     c_bands:  1 eigenvalues not converged
     c_bands:  4 eigenvalues not converged
     c_bands:  3 eigenvalues not converged
     c_bands:  2 eigenvalues not converged
     c_bands:  1 eigenvalues not converged
     c_bands:  2 eigenvalues not converged
     c_bands:  1 eigenvalues not converged
     c_bands:  1 eigenvalues not converged
     c_bands:  2 eigenvalues not converged
     ethr =  9.10E-06,  avg # of iterations = 17.7

     total cpu time spent up to now is      603.6 secs

     total energy              =   -4240.93367661 Ry
     estimated scf accuracy    <       0.03468972 Ry

     iteration #  5     ecut=    80.00 Ry     beta= 0.70
     Davidson diagonalization with overlap
     ethr =  9.10E-06,  avg # of iterations =  7.1

     total cpu time spent up to now is      699.3 secs

     total energy              =   -4240.93535619 Ry
     estimated scf accuracy    <       0.00583091 Ry

     iteration #  6     ecut=    80.00 Ry     beta= 0.70
     Davidson diagonalization with overlap
     ethr =  6.94E-06,  avg # of iterations =  2.9

     total cpu time spent up to now is      777.2 secs

     total energy              =   -4240.93591906 Ry
     estimated scf accuracy    <       0.00075277 Ry

     iteration #  7     ecut=    80.00 Ry     beta= 0.70
     Davidson diagonalization with overlap
     ethr =  8.96E-07,  avg # of iterations =  8.6

     total cpu time spent up to now is      892.7 secs

     total energy              =   -4240.93628697 Ry
     estimated scf accuracy    <       0.00086421 Ry

     iteration #  8     ecut=    80.00 Ry     beta= 0.70
     Davidson diagonalization with overlap
     ethr =  8.96E-07,  avg # of iterations =  2.2

     total cpu time spent up to now is      963.3 secs

     total energy              =   -4240.93631773 Ry
     estimated scf accuracy    <       0.00011815 Ry

     iteration #  9     ecut=    80.00 Ry     beta= 0.70
     Davidson diagonalization with overlap
     ethr =  1.41E-07,  avg # of iterations =  6.5

     total cpu time spent up to now is     1056.3 secs

     total energy              =   -4240.93635709 Ry
     estimated scf accuracy    <       0.00001689 Ry

     iteration # 10     ecut=    80.00 Ry     beta= 0.70
     Davidson diagonalization with overlap
     ethr =  2.01E-08,  avg # of iterations =  3.3

     total cpu time spent up to now is     1132.2 secs

     total energy              =   -4240.93635937 Ry
     estimated scf accuracy    <       0.00000159 Ry

     iteration # 11     ecut=    80.00 Ry     beta= 0.70
     Davidson diagonalization with overlap
     ethr =  1.90E-09,  avg # of iterations =  7.3

     total cpu time spent up to now is     1237.1 secs

     total energy              =   -4240.93636049 Ry
     estimated scf accuracy    <       0.00000070 Ry

     iteration # 12     ecut=    80.00 Ry     beta= 0.70
     Davidson diagonalization with overlap
     ethr =  8.39E-10,  avg # of iterations =  2.6

     total cpu time spent up to now is     1310.0 secs

     total energy              =   -4240.93636053 Ry
     estimated scf accuracy    <       0.00000010 Ry

     iteration # 13     ecut=    80.00 Ry     beta= 0.70
     Davidson diagonalization with overlap
     ethr =  1.15E-10,  avg # of iterations =  6.3

     total cpu time spent up to now is     1409.6 secs

     total energy              =   -4240.93636058 Ry
     estimated scf accuracy    <       0.00000003 Ry

     iteration # 14     ecut=    80.00 Ry     beta= 0.70
     Davidson diagonalization with overlap
     ethr =  3.52E-11,  avg # of iterations =  1.8

     total cpu time spent up to now is     1478.4 secs

     total energy              =   -4240.93636058 Ry
     estimated scf accuracy    <       0.00000001 Ry

     iteration # 15     ecut=    80.00 Ry     beta= 0.70
     Davidson diagonalization with overlap
     ethr =  1.44E-11,  avg # of iterations =  5.2

     total cpu time spent up to now is     1562.7 secs

     total energy              =   -4240.93636058 Ry
     estimated scf accuracy    <          1.6E-10 Ry

     iteration # 16     ecut=    80.00 Ry     beta= 0.70
     Davidson diagonalization with overlap
     ethr =  1.89E-13,  avg # of iterations =  9.6

     total cpu time spent up to now is     1675.5 secs

     total energy              =   -4240.93636058 Ry
     estimated scf accuracy    <          8.8E-10 Ry

     iteration # 17     ecut=    80.00 Ry     beta= 0.70
     Davidson diagonalization with overlap
     ethr =  1.89E-13,  avg # of iterations =  2.2

     total cpu time spent up to now is     1740.7 secs

     total energy              =   -4240.93636058 Ry
     estimated scf accuracy    <          4.3E-10 Ry

     iteration # 18     ecut=    80.00 Ry     beta= 0.70
     Davidson diagonalization with overlap
     ethr =  1.89E-13,  avg # of iterations =  6.0

     total cpu time spent up to now is     1825.2 secs

     End of self-consistent calculation

          k = 0.0000 0.0000 0.0000 ( 36359 PWs)   bands (ev):

   -44.1485 -44.1484 -22.2622 -22.2622 -22.1729 -22.1729 -22.0849 -22.0847
    -8.2406  -8.0430  -7.1317  -6.9615  -6.0878  -5.4042  -4.7878  -4.7388
    -4.7021  -3.7674   0.2192   0.7949   0.8329   1.1615   1.2803   1.5338
     1.8235   1.9368   2.2628   2.8107   2.9158   2.9790   3.2492   3.3828
     3.8539   3.9463   4.0948   4.1029   4.3402   4.3615   4.4696   4.6926
     4.7397   5.2925   5.6275   5.8678   5.8990   5.9111   6.0674   6.7169
     7.1009   7.2853

          k = 0.0000 0.0000 0.1485 ( 36415 PWs)   bands (ev):

   -44.1485 -44.1484 -22.2622 -22.2622 -22.1729 -22.1729 -22.0848 -22.0847
    -8.2167  -8.0786  -7.0973  -6.9792  -6.0252  -5.5787  -4.7783  -4.7455
    -4.5001  -3.8755   0.2975   0.8497   0.9283   0.9327   1.1185   1.8381
     1.8541   1.9177   2.0022   2.8295   2.9033   3.0235   3.3812   3.4735
     3.8032   3.9942   4.0628   4.1184   4.2833   4.3805   4.4732   4.6978
     4.7320   4.8535   5.8379   5.8630   5.8678   6.2090   6.2863   6.5774
     6.9087   7.1106

          k = 0.0000 0.0000-0.2971 ( 36410 PWs)   bands (ev):

   -44.1484 -44.1484 -22.2622 -22.2622 -22.1729 -22.1729 -22.0848 -22.0848
    -8.1532  -8.1532  -7.0303  -7.0303  -5.8424  -5.8424  -4.7618  -4.7618
    -4.1549  -4.1549   0.5292   0.5292   0.9797   0.9797   1.3474   1.3474
     1.8757   1.8757   2.5482   2.5482   2.8694   2.8694   3.6129   3.6129
     3.9310   3.9310   4.1244   4.1244   4.2965   4.2965   4.4498   4.4498
     4.7141   4.7141   5.8586   5.8586   6.2152   6.2152   6.5420   6.5420
     6.7604   6.7604

          k = 0.2541 0.0645 0.0000 ( 36396 PWs)   bands (ev):

   -44.1481 -44.1481 -22.2602 -22.2602 -22.1824 -22.1824 -22.0838 -22.0836
    -8.1147  -7.9194  -7.0672  -6.9121  -6.0292  -5.3558  -4.7615  -4.7379
    -4.6925  -3.9510   0.2983   0.8882   0.9095   0.9567   1.2592   1.4938
     1.5082   1.5200   1.7703   2.5953   2.6271   3.1963   3.2973   3.6979
     3.7810   3.7935   3.8869   3.9114   4.0804   4.2696   4.3409   4.4309
     4.4581   4.6035   5.9379   5.9817   6.1580   6.4698   6.4740   6.6977
     7.0495   7.2361

          k = 0.2541 0.0645 0.1485 ( 36423 PWs)   bands (ev):

   -44.1481 -44.1481 -22.2602 -22.2602 -22.1824 -22.1824 -22.0837 -22.0836
    -8.0911  -7.9546  -7.0358  -6.9282  -5.9664  -5.5274  -4.7416  -4.7015
    -4.5620  -4.0357   0.3655   0.7816   0.9056   0.9963   1.1638   1.2188
     1.6050   1.7134   2.0717   2.5968   2.6090   2.9451   3.4186   3.4382
     3.5183   3.8543   3.9705   4.0347   4.0670   4.2214   4.4097   4.4468
     4.6756   4.7328   5.8876   6.0135   6.1178   6.2240   6.2868   6.8124
     7.2110   7.2401

          k = 0.2541 0.0645-0.2971 ( 36436 PWs)   bands (ev):

   -44.1481 -44.1481 -22.2602 -22.2602 -22.1824 -22.1824 -22.0837 -22.0837
    -8.0284  -8.0284  -6.9746  -6.9746  -5.7853  -5.7853  -4.7214  -4.7214
    -4.2638  -4.2638   0.5525   0.5525   0.9596   0.9596   1.1120   1.1120
     1.7494   1.7494   2.4867   2.4867   2.6481   2.6481   3.2788   3.2788
     3.6840   3.6840   4.0122   4.0122   4.1739   4.1739   4.4384   4.4384
     4.9162   4.9162   5.7924   5.7924   6.1399   6.1399   6.4754   6.4754
     7.3571   7.3571

          k = 0.5081 0.1290 0.0000 ( 36499 PWs)   bands (ev):

   -44.1472 -44.1472 -22.2555 -22.2555 -22.2053 -22.2053 -22.0811 -22.0810
    -7.7463  -7.5560  -6.9134  -6.7896  -5.8622  -5.2361  -4.9943  -4.6270
    -4.5800  -4.4869   0.0135   0.4454   0.7033   0.9689   1.1621   1.3069
     1.6335   1.7151   1.7722   2.0787   2.1431   2.4077   2.5723   3.4314
     3.4779   3.5603   3.5669   3.6816   3.7654   3.8534   3.9997   4.2292
     4.3083   4.8609   5.8516   6.1697   6.2836   6.6102   6.6475   7.0569
     7.4320   7.5508

          k = 0.5081 0.1290 0.1485 ( 36476 PWs)   bands (ev):

   -44.1472 -44.1472 -22.2555 -22.2555 -22.2053 -22.2053 -22.0811 -22.0810
    -7.7235  -7.5908  -6.8879  -6.8025  -5.8025  -5.4062  -4.8564  -4.6172
    -4.6020  -4.5007   0.0682   0.4123   0.7818   0.8498   1.1624   1.2621
     1.4012   1.5823   2.0030   2.0905   2.3138   2.4974   2.8677   3.3643
     3.4555   3.4965   3.5355   3.6905   3.7606   3.7914   3.8796   4.2578
     4.3002   4.4647   6.2465   6.2945   6.4359   6.6097   6.7059   6.9288
     7.2872   7.5269

          k = 0.5081 0.1290-0.2971 ( 36466 PWs)   bands (ev):

   -44.1472 -44.1472 -22.2555 -22.2555 -22.2053 -22.2053 -22.0811 -22.0811
    -7.6629  -7.6629  -6.8393  -6.8393  -5.6363  -5.6363  -4.7071  -4.7071
    -4.5484  -4.5484   0.2301   0.2301   0.9574   0.9574   0.9862   0.9862
     1.4642   1.4642   2.0549   2.0549   2.6538   2.6538   3.1860   3.1860
     3.3882   3.3882   3.5842   3.5842   3.7593   3.7593   3.9141   3.9141
     4.3399   4.3399   6.4806   6.4806   6.5719   6.5719   6.8884   6.8884
     7.2463   7.2463

          k = 0.7622 0.1934 0.0000 ( 36521 PWs)   bands (ev):

   -44.1463 -44.1463 -22.2508 -22.2508 -22.2281 -22.2281 -22.0785 -22.0784
    -7.1802  -6.9804  -6.7686  -6.6429  -5.7281  -5.5264  -5.1512  -5.1368
    -4.4997  -4.4616  -0.2262   0.0239   0.2053   0.9156   0.9232   1.3001
     1.4890   1.5971   2.0140   2.1853   2.2272   2.2510   2.4550   2.8118
     2.9914   3.2392   3.3572   3.4586   3.5163   3.6685   3.7325   3.7499
     3.8664   4.5861   6.1730   6.4606   6.5627   6.9422   6.9669   7.0230
     7.3909   7.6338

          k = 0.7622 0.1934 0.1485 ( 36503 PWs)   bands (ev):

   -44.1463 -44.1463 -22.2508 -22.2508 -22.2281 -22.2281 -22.0785 -22.0785
    -7.1587  -7.0236  -6.7376  -6.6548  -5.6949  -5.5509  -5.1536  -5.1453
    -4.4923  -4.4657  -0.1912   0.1088   0.1497   0.7833   0.9480   1.2485
     1.4982   1.5983   2.0007   2.0306   2.1499   2.5739   2.7048   2.8981
     2.9502   3.0297   3.2730   3.3521   3.5100   3.6032   3.7531   3.9300
     3.9873   4.4634   6.0079   6.4438   6.7497   6.8961   7.0388   7.0828
     7.1868   7.6642

          k = 0.7622 0.1934-0.2971 ( 36522 PWs)   bands (ev):

   -44.1463 -44.1463 -22.2508 -22.2508 -22.2281 -22.2281 -22.0785 -22.0785
    -7.0998  -7.0998  -6.6889  -6.6889  -5.6188  -5.6188  -5.1547  -5.1547
    -4.4774  -4.4774  -0.0664  -0.0664   0.4499   0.4499   1.0784   1.0784
     1.5555   1.5555   1.9942   1.9942   2.4400   2.4400   2.8470   2.8470
     2.9598   2.9598   3.2678   3.2678   3.5948   3.5948   3.9614   3.9614
     4.0706   4.0706   6.3791   6.3791   6.5314   6.5314   7.0676   7.0676
     7.5654   7.5655

          k =-1.0162-0.2579 0.0000 ( 36506 PWs)   bands (ev):

   -44.1460 -44.1460 -22.2488 -22.2488 -22.2376 -22.2376 -22.0774 -22.0774
    -6.7628  -6.7417  -6.2763  -6.2645  -6.2600  -6.2557  -5.1841  -5.1836
    -4.4416  -4.4117  -0.1451  -0.1263   0.1602   0.1816   1.0115   1.0191
     1.4667   1.6589   2.2102   2.3719   2.3965   2.4237   2.7925   2.8346
     2.8383   2.8770   3.1782   3.2334   3.2985   3.3536   3.4340   3.6161
     3.9656   4.2244   6.6782   6.7475   6.8007   6.8180   7.1205   7.2162
     7.2174   7.2884

          k =-1.0162-0.2579 0.1485 ( 36506 PWs)   bands (ev):

   -44.1460 -44.1460 -22.2488 -22.2488 -22.2376 -22.2376 -22.0774 -22.0774
    -6.7578  -6.7426  -6.3110  -6.3037  -6.2249  -6.2205  -5.1825  -5.1822
    -4.4394  -4.4183  -0.2374  -0.2316   0.3475   0.3556   1.0070   1.0164
     1.4591   1.5900   2.0743   2.2077   2.3392   2.3924   2.6434   2.6633
     2.9250   3.0274   3.1056   3.2114   3.5159   3.5508   3.5830   3.7004
     4.0966   4.2461   6.2773   6.2992   6.5836   6.6609   7.2286   7.2357
     7.4462   7.5169

          k =-1.0162-0.2579-0.2971 ( 36528 PWs)   bands (ev):

   -44.1460 -44.1460 -22.2488 -22.2488 -22.2376 -22.2376 -22.0774 -22.0774
    -6.7481  -6.7481  -6.3256  -6.3256  -6.2063  -6.2063  -5.1808  -5.1808
    -4.4311  -4.4311  -0.2953  -0.2953   0.5240   0.5240   0.9791   0.9791
     1.5031   1.5031   1.9442   1.9442   2.3455   2.3455   2.7578   2.7578
     2.8144   2.8144   3.1993   3.1993   3.6290   3.6290   3.7787   3.7787
     4.3120   4.3120   5.9245   5.9245   6.5254   6.5254   7.2450   7.2450
     7.5845   7.5845

          k = 0.5081 0.0000 0.0000 ( 36503 PWs)   bands (ev):

   -44.1472 -44.1472 -22.2555 -22.2555 -22.2053 -22.2053 -22.0811 -22.0810
    -7.7482  -7.5564  -6.9136  -6.7885  -5.8592  -5.2354  -4.9919  -4.6202
    -4.5880  -4.4864   0.0180   0.4388   0.7033   0.9846   1.1582   1.2626
     1.6279   1.7043   1.7591   2.0860   2.1387   2.3955   2.5754   3.4236
     3.5014   3.5739   3.5921   3.6567   3.7778   3.9036   3.9800   4.2666
     4.3113   4.8515   5.8579   6.1452   6.3162   6.5736   6.5952   7.0949
     7.4374   7.5759

          k = 0.5081 0.0000 0.1485 ( 36453 PWs)   bands (ev):

   -44.1472 -44.1472 -22.2555 -22.2555 -22.2053 -22.2053 -22.0811 -22.0810
    -7.7253  -7.5916  -6.8877  -6.8014  -5.8000  -5.4054  -4.8531  -4.6178
    -4.6009  -4.5028   0.0714   0.4061   0.7852   0.8546   1.1732   1.2437
     1.3644   1.5600   2.0024   2.1052   2.3021   2.4834   2.8685   3.3801
     3.4733   3.4836   3.5475   3.7119   3.7446   3.8496   3.8518   4.2978
     4.3137   4.4473   6.2333   6.3051   6.4548   6.5661   6.6677   6.9628
     7.3005   7.5435

          k = 0.5081 0.0000-0.2971 ( 36452 PWs)   bands (ev):

   -44.1472 -44.1472 -22.2555 -22.2555 -22.2053 -22.2053 -22.0811 -22.0811
    -7.6643  -7.6643  -6.8384  -6.8384  -5.6348  -5.6348  -4.7037  -4.7037
    -4.5508  -4.5508   0.2298   0.2298   0.9568   0.9568   0.9900   0.9900
     1.4302   1.4302   2.0592   2.0592   2.6433   2.6433   3.1899   3.1899
     3.3970   3.3970   3.5875   3.5875   3.7906   3.7906   3.9016   3.9016
     4.3575   4.3575   6.4948   6.4948   6.5363   6.5363   6.9066   6.9066
     7.2477   7.2477

          k = 0.7622 0.0645 0.0000 ( 36505 PWs)   bands (ev):

   -44.1463 -44.1463 -22.2508 -22.2508 -22.2281 -22.2281 -22.0785 -22.0784
    -7.1852  -6.9812  -6.7659  -6.6395  -5.7286  -5.5243  -5.1499  -5.1373
    -4.4885  -4.4735  -0.2177   0.0218   0.2142   0.9060   0.9533   1.3132
     1.4586   1.5592   1.9766   2.1772   2.2631   2.2636   2.3949   2.7876
     2.9820   3.2829   3.3663   3.4644   3.5833   3.6885   3.7007   3.7364
     3.8396   4.6080   6.1704   6.4314   6.5872   6.9401   6.9828   6.9977
     7.3982   7.6736

          k = 0.7622 0.0645 0.1485 ( 36509 PWs)   bands (ev):

   -44.1463 -44.1463 -22.2508 -22.2508 -22.2281 -22.2281 -22.0785 -22.0785
    -7.1634  -7.0256  -6.7341  -6.6511  -5.6955  -5.5497  -5.1524  -5.1453
    -4.4844  -4.4741  -0.1828   0.1187   0.1446   0.7732   0.9752   1.2614
     1.4701   1.5945   1.9726   1.9898   2.1300   2.5748   2.7061   2.8874
     2.9387   3.0344   3.3121   3.3560   3.5548   3.5933   3.7249   3.9649
     3.9754   4.4560   6.0322   6.4201   6.7676   6.8965   7.0130   7.1224
     7.1591   7.6910

          k = 0.7622 0.0645-0.2971 ( 36472 PWs)   bands (ev):

   -44.1463 -44.1463 -22.2508 -22.2508 -22.2281 -22.2281 -22.0785 -22.0785
    -7.1035  -7.1035  -6.6848  -6.6848  -5.6189  -5.6189  -5.1539  -5.1539
    -4.4776  -4.4776  -0.0582  -0.0582   0.4432   0.4432   1.0975   1.0975
     1.5507   1.5507   1.9408   1.9408   2.4376   2.4376   2.8518   2.8518
     2.9376   2.9376   3.3170   3.3170   3.5916   3.5916   3.9761   3.9761
     4.0508   4.0508   6.4069   6.4069   6.5300   6.5300   7.0381   7.0381
     7.5926   7.5926

          k = 1.0162 0.1290 0.0000 ( 36514 PWs)   bands (ev):

   -44.1460 -44.1460 -22.2488 -22.2488 -22.2376 -22.2376 -22.0774 -22.0774
    -6.7628  -6.7417  -6.2762  -6.2647  -6.2600  -6.2557  -5.1841  -5.1836
    -4.4416  -4.4117  -0.1507  -0.1206   0.1576   0.1843   1.0031   1.0282
     1.4737   1.6486   2.2062   2.3783   2.4019   2.4161   2.7664   2.8417
     2.8699   2.8789   3.1972   3.1991   3.2914   3.3391   3.4740   3.6028
     3.9483   4.2415   6.6720   6.7572   6.7832   6.8356   7.1459   7.2162
     7.2195   7.2666

          k = 1.0162 0.1290 0.1485 ( 36524 PWs)   bands (ev):

   -44.1460 -44.1460 -22.2488 -22.2488 -22.2376 -22.2376 -22.0774 -22.0774
    -6.7578  -6.7426  -6.3109  -6.3038  -6.2248  -6.2206  -5.1825  -5.1822
    -4.4394  -4.4183  -0.2398  -0.2294   0.3487   0.3549   1.0050   1.0185
     1.4655   1.5833   2.0823   2.1910   2.3425   2.3926   2.6232   2.6900
     2.9208   3.0393   3.1062   3.2030   3.5094   3.5285   3.6218   3.6923
     4.0755   4.2654   6.2730   6.3090   6.5799   6.6632   7.2308   7.2357
     7.4568   7.5075

          k = 1.0162 0.1290-0.2971 ( 36516 PWs)   bands (ev):

   -44.1460 -44.1460 -22.2488 -22.2488 -22.2376 -22.2376 -22.0774 -22.0774
    -6.7481  -6.7481  -6.3256  -6.3256  -6.2063  -6.2063  -5.1809  -5.1809
    -4.4311  -4.4311  -0.2954  -0.2954   0.5243   0.5243   0.9788   0.9788
     1.5043   1.5043   1.9448   1.9448   2.3397   2.3397   2.7363   2.7363
     2.8471   2.8471   3.1906   3.1906   3.6306   3.6306   3.7781   3.7781
     4.3126   4.3126   5.9275   5.9275   6.5246   6.5246   7.2458   7.2458
     7.5854   7.5854

          k =-0.7622-0.3224 0.0000 ( 36511 PWs)   bands (ev):

   -44.1463 -44.1463 -22.2508 -22.2508 -22.2281 -22.2281 -22.0785 -22.0784
    -7.1729  -6.9792  -6.7730  -6.6473  -5.7274  -5.5293  -5.1528  -5.1362
    -4.5083  -4.4520  -0.2381   0.0272   0.1924   0.8895   0.9292   1.2840
     1.5031   1.6660   2.0910   2.1922   2.2114   2.2401   2.4675   2.8490
     3.0005   3.2090   3.3441   3.4540   3.4931   3.6234   3.6883   3.7076
     3.9909   4.5474   6.1766   6.4911   6.5529   6.8616   7.0071   7.0911
     7.3691   7.5784

          k =-0.7622-0.3224 0.1485 ( 36492 PWs)   bands (ev):

   -44.1463 -44.1463 -22.2508 -22.2508 -22.2281 -22.2281 -22.0785 -22.0785
    -7.1519  -7.0207  -6.7431  -6.6599  -5.6942  -5.5526  -5.1551  -5.1455
    -4.4983  -4.4590  -0.2028   0.0979   0.1537   0.7975   0.9167   1.2307
     1.5251   1.6117   2.0140   2.1166   2.1855   2.5730   2.6786   2.9207
     2.9537   3.0510   3.2377   3.3264   3.4752   3.5827   3.7699   3.8791
     4.0293   4.4721   5.9761   6.4814   6.7171   6.8926   7.0316   7.1074
     7.2109   7.6064

          k =-0.7622-0.3224-0.2971 ( 36508 PWs)   bands (ev):

   -44.1463 -44.1463 -22.2508 -22.2508 -22.2281 -22.2281 -22.0785 -22.0785
    -7.0945  -7.0945  -6.6948  -6.6948  -5.6187  -5.6187  -5.1559  -5.1559
    -4.4772  -4.4772  -0.0777  -0.0777   0.4587   0.4587   1.0556   1.0556
     1.5634   1.5634   2.0600   2.0600   2.4551   2.4551   2.8418   2.8418
     2.9907   2.9907   3.1998   3.1998   3.5920   3.5920   3.9205   3.9205
     4.1180   4.1180   6.3446   6.3446   6.5310   6.5310   7.1145   7.1145
     7.5129   7.5130

          k =-0.5081-0.2579 0.0000 ( 36480 PWs)   bands (ev):

   -44.1472 -44.1472 -22.2555 -22.2555 -22.2053 -22.2053 -22.0811 -22.0810
    -7.7415  -7.5550  -6.9131  -6.7918  -5.8695  -5.2375  -5.0000  -4.6368
    -4.5673  -4.4881   0.0030   0.4608   0.7021   0.9419   1.1714   1.4131
     1.6433   1.7502   1.8047   2.0660   2.1431   2.4335   2.5628   3.3881
     3.4537   3.5428   3.5550   3.6999   3.7150   3.7679   4.0488   4.1401
     4.2980   4.8813   5.8388   6.1921   6.2437   6.7040   6.7728   6.9683
     7.4125   7.4952

          k =-0.5081-0.2579 0.1485 ( 36485 PWs)   bands (ev):

   -44.1472 -44.1472 -22.2555 -22.2555 -22.2053 -22.2053 -22.0811 -22.0810
    -7.7191  -7.5890  -6.8888  -6.8049  -5.8085  -5.4082  -4.8644  -4.6155
    -4.6046  -4.4961   0.0605   0.4269   0.7750   0.8364   1.1528   1.2903
     1.4979   1.6450   1.9930   2.0652   2.3377   2.5259   2.8645   3.3014
     3.4476   3.5001   3.5191   3.6544   3.6812   3.7756   3.9337   4.1743
     4.2659   4.4945   6.2587   6.2814   6.3988   6.7052   6.8089   6.8562
     7.2474   7.4924

          k =-0.5081-0.2579-0.2971 ( 36478 PWs)   bands (ev):

   -44.1472 -44.1472 -22.2555 -22.2555 -22.2053 -22.2053 -22.0811 -22.0811
    -7.6595  -7.6595  -6.8416  -6.8416  -5.6399  -5.6399  -4.7149  -4.7149
    -4.5428  -4.5428   0.2306   0.2306   0.9582   0.9582   0.9787   0.9787
     1.5540   1.5540   2.0387   2.0387   2.6854   2.6854   3.1576   3.1576
     3.3708   3.3708   3.5635   3.5635   3.7073   3.7073   3.9404   3.9404
     4.3000   4.3000   6.4478   6.4478   6.6496   6.6496   6.8479   6.8479
     7.2502   7.2502

          k =-0.2541-0.1934 0.0000 ( 36410 PWs)   bands (ev):

   -44.1481 -44.1481 -22.2602 -22.2602 -22.1824 -22.1824 -22.0838 -22.0836
    -8.1114  -7.9187  -7.0636  -6.9130  -6.0405  -5.3599  -4.7834  -4.7338
    -4.6778  -3.9518   0.3211   0.8759   0.9212   1.0216   1.2849   1.5115
     1.5195   1.5633   1.7912   2.5651   2.6173   3.1907   3.3529   3.6780
     3.7293   3.7527   3.8801   3.8940   3.9180   4.1990   4.3111   4.3681
     4.3895   4.6469   5.9960   6.0259   6.2388   6.4576   6.4930   6.7584
     7.0182   7.1594

          k =-0.2541-0.1934 0.1485 ( 36427 PWs)   bands (ev):

   -44.1481 -44.1481 -22.2602 -22.2602 -22.1824 -22.1824 -22.0837 -22.0836
    -8.0880  -7.9533  -7.0334  -6.9289  -5.9763  -5.5319  -4.7573  -4.6936
    -4.5583  -4.0358   0.3884   0.7829   0.9126   1.0641   1.1816   1.2550
     1.6103   1.7251   2.1058   2.5652   2.6046   2.9430   3.4311   3.4770
     3.5323   3.7751   3.8566   3.9091   4.0237   4.1893   4.3710   4.3918
     4.6382   4.7740   5.8923   6.0299   6.1266   6.2986   6.3573   6.8108
     7.1718   7.2321

          k =-0.2541-0.1934-0.2971 ( 36422 PWs)   bands (ev):

   -44.1481 -44.1481 -22.2602 -22.2602 -22.1824 -22.1824 -22.0837 -22.0837
    -8.0261  -8.0261  -6.9743  -6.9743  -5.7922  -5.7922  -4.7248  -4.7248
    -4.2625  -4.2625   0.5715   0.5715   0.9725   0.9725   1.1581   1.1581
     1.7577   1.7577   2.4880   2.4880   2.6492   2.6492   3.2846   3.2846
     3.7026   3.7026   3.8482   3.8482   4.1489   4.1489   4.3851   4.3851
     4.9326   4.9326   5.7679   5.7679   6.1900   6.1900   6.5103   6.5103
     7.3470   7.3470

          k = 0.0000-0.1290 0.0000 ( 36417 PWs)   bands (ev):

   -44.1485 -44.1484 -22.2622 -22.2622 -22.1729 -22.1729 -22.0849 -22.0847
    -8.2389  -8.0427  -7.1290  -6.9618  -6.0951  -5.4071  -4.7973  -4.7372
    -4.6960  -3.7678   0.2343   0.7979   0.8735   1.1729   1.2918   1.5662
     1.8233   1.9364   2.2600   2.8176   2.9194   2.9804   3.2478   3.4217
     3.8267   3.9349   3.9608   4.0130   4.2867   4.3618   4.4235   4.6794
     4.7384   5.2711   5.6462   5.9184   5.9362   5.9475   6.0754   6.7344
     7.1010   7.2277

          k = 0.0000-0.1290 0.1485 ( 36419 PWs)   bands (ev):

   -44.1485 -44.1484 -22.2622 -22.2622 -22.1729 -22.1729 -22.0848 -22.0847
    -8.2151  -8.0779  -7.0954  -6.9793  -6.0316  -5.5819  -4.7870  -4.7401
    -4.4991  -3.8756   0.3132   0.8935   0.9317   0.9402   1.1397   1.8378
     1.8586   1.9174   2.0198   2.8359   2.9073   3.0284   3.3647   3.5128
     3.8052   3.9356   3.9833   4.0060   4.2791   4.3260   4.4293   4.6898
     4.7306   4.8475   5.8579   5.8917   5.9173   6.2153   6.2963   6.5909
     6.9099   7.0730

          k = 0.0000-0.1290-0.2971 ( 36464 PWs)   bands (ev):

   -44.1485 -44.1485 -22.2622 -22.2622 -22.1729 -22.1729 -22.0848 -22.0848
    -8.1520  -8.1520  -7.0296  -7.0296  -5.8470  -5.8470  -4.7634  -4.7634
    -4.1545  -4.1545   0.5471   0.5471   1.0053   1.0053   1.3522   1.3522
     1.8754   1.8754   2.5608   2.5608   2.8746   2.8746   3.6202   3.6202
     3.8677   3.8677   4.1156   4.1156   4.2161   4.2161   4.4301   4.4301
     4.7111   4.7111   5.8929   5.8929   6.2288   6.2288   6.5456   6.5456
     6.7487   6.7487

          k = 1.0162 0.0000 0.0000 ( 36499 PWs)   bands (ev):

   -44.1460 -44.1459 -22.2488 -22.2488 -22.2376 -22.2376 -22.0774 -22.0774
    -6.7628  -6.7417  -6.2760  -6.2648  -6.2600  -6.2557  -5.1841  -5.1836
    -4.4416  -4.4117  -0.1548  -0.1165   0.1554   0.1865   0.9988   1.0333
     1.4818   1.6372   2.2024   2.3902   2.4030   2.4072   2.7543   2.8536
     2.8543   2.9104   3.1705   3.2273   3.2783   3.3171   3.5205   3.5782
     3.9330   4.2567   6.6669   6.7659   6.7734   6.8453   7.1934   7.2165
     7.2211   7.2226

          k = 1.0162 0.0000 0.1485 ( 36485 PWs)   bands (ev):

   -44.1460 -44.1460 -22.2488 -22.2488 -22.2376 -22.2376 -22.0774 -22.0774
    -6.7578  -6.7426  -6.3109  -6.3038  -6.2248  -6.2206  -5.1825  -5.1822
    -4.4394  -4.4183  -0.2415  -0.2280   0.3503   0.3538   1.0036   1.0200
     1.4729   1.5757   2.0928   2.1724   2.3475   2.3904   2.6154   2.7033
     2.9203   3.0479   3.1097   3.1926   3.4952   3.5286   3.6543   3.6758
     4.0579   4.2813   6.2708   6.3168   6.5765   6.6653   7.2339   7.2348
     7.4785   7.4869

          k = 1.0162 0.0000-0.2971 ( 36514 PWs)   bands (ev):

   -44.1460 -44.1460 -22.2488 -22.2488 -22.2376 -22.2376 -22.0774 -22.0774
    -6.7481  -6.7481  -6.3256  -6.3256  -6.2063  -6.2063  -5.1809  -5.1809
    -4.4311  -4.4311  -0.2955  -0.2955   0.5246   0.5246   0.9786   0.9786
     1.5056   1.5056   1.9454   1.9454   2.3340   2.3340   2.7235   2.7235
     2.8717   2.8717   3.1813   3.1813   3.6322   3.6322   3.7775   3.7775
     4.3132   4.3132   5.9304   5.9304   6.5237   6.5237   7.2466   7.2466
     7.5863   7.5863

          k = 1.2703 0.0645 0.0000 ( 36468 PWs)   bands (ev):

   -44.1463 -44.1463 -22.2508 -22.2508 -22.2281 -22.2281 -22.0785 -22.0784
    -7.1675  -6.9783  -6.7766  -6.6501  -5.7269  -5.5313  -5.1538  -5.1360
    -4.5128  -4.4468  -0.2463   0.0299   0.1830   0.8699   0.9387   1.2739
     1.5044   1.7170   2.1757   2.1904   2.2165   2.2401   2.4170   2.8789
     3.0024   3.1943   3.3750   3.4391   3.5072   3.5809   3.6178   3.6792
     4.0879   4.5093   6.1791   6.4963   6.5729   6.8028   7.0373   7.1570
     7.3360   7.5593

          k = 1.2703 0.0645 0.1485 ( 36490 PWs)   bands (ev):

   -44.1463 -44.1463 -22.2508 -22.2508 -22.2281 -22.2281 -22.0785 -22.0785
    -7.1469  -7.0186  -6.7473  -6.6633  -5.6937  -5.5538  -5.1561  -5.1458
    -4.5015  -4.4554  -0.2109   0.0912   0.1555   0.8072   0.8980   1.2192
     1.5352   1.6274   2.0225   2.1715   2.2292   2.5805   2.6300   2.9430
     2.9521   3.0826   3.2194   3.2933   3.4848   3.5349   3.7714   3.8387
     4.0752   4.4760   5.9554   6.5126   6.6874   6.8890   7.0118   7.1698
     7.2138   7.5545

          k = 1.2703 0.0645-0.2971 ( 36480 PWs)   bands (ev):

   -44.1463 -44.1463 -22.2508 -22.2508 -22.2281 -22.2281 -22.0785 -22.0785
    -7.0906  -7.0906  -6.6991  -6.6991  -5.6186  -5.6186  -5.1567  -5.1567
    -4.4771  -4.4771  -0.0854  -0.0854   0.4646   0.4646   1.0419   1.0419
     1.5695   1.5695   2.0977   2.0977   2.4784   2.4784   2.8397   2.8397
     3.0097   3.0097   3.1528   3.1528   3.5853   3.5853   3.8874   3.8874
     4.1552   4.1552   6.3229   6.3229   6.5298   6.5298   7.1524   7.1524
     7.4630   7.4631

          k =-0.5081-0.3869 0.0000 ( 36463 PWs)   bands (ev):

   -44.1472 -44.1472 -22.2555 -22.2555 -22.2053 -22.2053 -22.0811 -22.0810
    -7.7367  -7.5541  -6.9136  -6.7933  -5.8769  -5.2389  -5.0059  -4.6430
    -4.5581  -4.4893  -0.0073   0.4756   0.6988   0.9233   1.1806   1.5393
     1.6539   1.7731   1.8385   2.0449   2.1661   2.4333   2.5502   3.2888
     3.4849   3.5368   3.5639   3.5875   3.7268   3.7451   4.0010   4.1381
     4.2853   4.8986   5.8284   6.1126   6.3096   6.8075   6.8819   6.9070
     7.3684   7.4611

          k =-0.5081-0.3869 0.1485 ( 36477 PWs)   bands (ev):

   -44.1472 -44.1472 -22.2555 -22.2555 -22.2053 -22.2053 -22.0811 -22.0810
    -7.7146  -7.5871  -6.8902  -6.8069  -5.8146  -5.4100  -4.8721  -4.6133
    -4.6077  -4.4917   0.0530   0.4411   0.7713   0.8196   1.1516   1.3115
     1.6199   1.7184   1.9617   2.0372   2.3848   2.5240   2.8590   3.2220
     3.4339   3.4923   3.5152   3.5762   3.6852   3.7484   3.9681   4.1228
     4.2232   4.5195   6.2080   6.3178   6.3764   6.7611   6.8088   6.9488
     7.1886   7.4761

          k =-0.5081-0.3869-0.2971 ( 36492 PWs)   bands (ev):

   -44.1472 -44.1472 -22.2555 -22.2555 -22.2053 -22.2053 -22.0811 -22.0811
    -7.6560  -7.6560  -6.8440  -6.8440  -5.6434  -5.6434  -4.7222  -4.7222
    -4.5376  -4.5376   0.2309   0.2309   0.9586   0.9586   0.9728   0.9728
     1.6646   1.6646   2.0055   2.0055   2.7321   2.7321   3.0867   3.0867
     3.3637   3.3637   3.5343   3.5343   3.6820   3.6820   3.9579   3.9579
     4.2678   4.2678   6.4166   6.4166   6.6981   6.6981   6.8264   6.8264
     7.2732   7.2732

          k =-0.2541-0.3224 0.0000 ( 36485 PWs)   bands (ev):

   -44.1481 -44.1481 -22.2602 -22.2602 -22.1824 -22.1824 -22.0838 -22.0836
    -8.1067  -7.9177  -7.0591  -6.9133  -6.0569  -5.3654  -4.8070  -4.7259
    -4.6665  -3.9528   0.3462   0.8691   0.9275   1.1330   1.3286   1.5209
     1.5562   1.6383   1.8237   2.4993   2.5741   3.2048   3.4425   3.5669
     3.6181   3.6756   3.7442   3.8948   3.9536   4.1338   4.1825   4.2889
     4.3504   4.6963   6.0705   6.0884   6.3042   6.4716   6.5216   6.8328
     6.9396   7.0789

          k =-0.2541-0.3224 0.1485 ( 36445 PWs)   bands (ev):

   -44.1481 -44.1481 -22.2602 -22.2602 -22.1824 -22.1824 -22.0837 -22.0836
    -8.0837  -7.9515  -7.0305  -6.9293  -5.9904  -5.5381  -4.7745  -4.6866
    -4.5537  -4.0360   0.4136   0.7850   0.9198   1.1581   1.2381   1.3137
     1.6219   1.7492   2.1597   2.5023   2.5647   2.9580   3.4249   3.4943
     3.5737   3.6003   3.6611   3.9074   3.9589   4.1284   4.2905   4.3441
     4.6259   4.8070   5.8949   6.0439   6.1454   6.3589   6.4601   6.7845
     7.1468   7.2170

          k =-0.2541-0.3224-0.2971 ( 36442 PWs)   bands (ev):

   -44.1481 -44.1481 -22.2602 -22.2602 -22.1824 -22.1824 -22.0837 -22.0837
    -8.0227  -8.0227  -6.9739  -6.9739  -5.8018  -5.8018  -4.7296  -4.7296
    -4.2607  -4.2607   0.5920   0.5920   0.9856   0.9856   1.2495   1.2495
     1.7742   1.7742   2.4767   2.4767   2.6479   2.6479   3.2868   3.2868
     3.5749   3.5749   3.8102   3.8102   4.0887   4.0887   4.3238   4.3238
     4.9537   4.9537   5.7421   5.7421   6.2122   6.2122   6.5698   6.5698
     7.3376   7.3376

          k = 0.0000-0.2579 0.0000 ( 36445 PWs)   bands (ev):

   -44.1485 -44.1484 -22.2622 -22.2622 -22.1729 -22.1729 -22.0849 -22.0847
    -8.2347  -8.0418  -7.1228  -6.9619  -6.1130  -5.4140  -4.8178  -4.7286
    -4.6888  -3.7687   0.2649   0.8061   0.9816   1.2258   1.3182   1.6358
     1.8228   1.9353   2.2542   2.8351   2.9277   2.9910   3.2366   3.5289
     3.5940   3.6803   3.9071   3.9628   4.1593   4.2952   4.3624   4.6478
     4.7355   5.2385   5.6919   6.0019   6.0025   6.0331   6.0948   6.7664
     7.0975   7.1010

          k = 0.0000-0.2579 0.1485 ( 36452 PWs)   bands (ev):

   -44.1485 -44.1484 -22.2622 -22.2622 -22.1729 -22.1729 -22.0848 -22.0847
    -8.2112  -8.0763  -7.0910  -6.9792  -6.0474  -5.5895  -4.8030  -4.7319
    -4.4970  -3.8758   0.3445   0.9421   0.9504   1.0275   1.1973   1.8373
     1.8696   1.9165   2.0632   2.8521   2.9169   3.0385   3.3326   3.5388
     3.6760   3.6971   3.9102   3.9569   4.2015   4.2683   4.3091   4.6714
     4.7271   4.8425   5.9069   5.9516   5.9916   6.2307   6.3150   6.6105
     6.9129   6.9826

          k = 0.0000-0.2579-0.2971 ( 36454 PWs)   bands (ev):

   -44.1485 -44.1485 -22.2622 -22.2622 -22.1729 -22.1729 -22.0848 -22.0848
    -8.1490  -8.1490  -7.0281  -7.0281  -5.8582  -5.8582  -4.7673  -4.7673
    -4.1535  -4.1535   0.5823   0.5823   1.0853   1.0853   1.3658   1.3658
     1.8747   1.8747   2.5921   2.5921   2.8875   2.8875   3.5195   3.5195
     3.7810   3.7810   4.0940   4.0940   4.1068   4.1068   4.3736   4.3736
     4.7041   4.7041   5.9444   5.9444   6.2628   6.2628   6.5543   6.5543
     6.7099   6.7099

          k = 1.5243 0.0000 0.0000 ( 36439 PWs)   bands (ev):

   -44.1472 -44.1472 -22.2555 -22.2555 -22.2053 -22.2053 -22.0811 -22.0810
    -7.7346  -7.5537  -6.9140  -6.7937  -5.8801  -5.2395  -5.0083  -4.6450
    -4.5549  -4.4898  -0.0115   0.4816   0.6967   0.9173   1.1844   1.6082
     1.6738   1.7480   1.8530   2.0341   2.2012   2.4100   2.5440   3.2540
     3.4987   3.5023   3.5678   3.5777   3.7057   3.7702   3.9390   4.1651
     4.2795   4.9049   5.8246   6.0771   6.3412   6.8460   6.8548   6.9713
     7.3325   7.5075

          k = 1.5243 0.0000 0.1485 ( 36476 PWs)   bands (ev):

   -44.1472 -44.1472 -22.2555 -22.2555 -22.2053 -22.2053 -22.0811 -22.0810
    -7.7127  -7.5863  -6.8909  -6.8076  -5.8171  -5.4108  -4.8753  -4.6115
    -4.6098  -4.4899   0.0499   0.4469   0.7714   0.8109   1.1523   1.3193
     1.7178   1.7181   1.9472   2.0124   2.4604   2.4649   2.8545   3.1950
     3.3973   3.4944   3.5220   3.5638   3.6935   3.7329   3.9528   4.1363
     4.1948   4.5295   6.1823   6.3346   6.3712   6.7339   6.8438   7.0219
     7.1451   7.4978

          k = 1.5243 0.0000-0.2971 ( 36508 PWs)   bands (ev):

   -44.1472 -44.1472 -22.2555 -22.2555 -22.2053 -22.2053 -22.0811 -22.0811
    -7.6546  -7.6546  -6.8450  -6.8450  -5.6449  -5.6449  -4.7252  -4.7252
    -4.5356  -4.5356   0.2311   0.2311   0.9589   0.9589   0.9703   0.9703
     1.7244   1.7244   1.9792   1.9792   2.7616   2.7616   3.0382   3.0382
     3.3647   3.3647   3.5236   3.5236   3.6756   3.6756   3.9607   3.9607
     4.2584   4.2584   6.4039   6.4039   6.7008   6.7008   6.8304   6.8304
     7.2928   7.2928

          k =-0.2541-0.4514 0.0000 ( 36444 PWs)   bands (ev):

   -44.1481 -44.1481 -22.2602 -22.2602 -22.1824 -22.1824 -22.0838 -22.0836
    -8.1034  -7.9171  -7.0564  -6.9129  -6.0687  -5.3693  -4.8211  -4.7197
    -4.6617  -3.9536   0.3588   0.8674   0.9291   1.2544   1.3295   1.5322
     1.5823   1.7169   1.8589   2.4290   2.5033   3.2498   3.4163   3.4670
     3.5069   3.6647   3.8111   3.8974   3.9524   4.0341   4.0997   4.2319
     4.3388   4.7278   6.0943   6.1668   6.3181   6.5031   6.5429   6.8531
     6.8793   7.0419

          k =-0.2541-0.4514 0.1485 ( 36461 PWs)   bands (ev):

   -44.1481 -44.1481 -22.2602 -22.2602 -22.1824 -22.1824 -22.0837 -22.0836
    -8.0806  -7.9502  -7.0288  -6.9291  -6.0005  -5.5425  -4.7851  -4.6829
    -4.5508  -4.0360   0.4263   0.7869   0.9228   1.2078   1.3132   1.3671
     1.6357   1.7779   2.2153   2.4347   2.4892   2.9879   3.3599   3.4100
     3.5235   3.5494   3.7481   3.8991   3.9281   3.9980   4.2583   4.3206
     4.6210   4.8281   5.8963   6.0457   6.1731   6.3774   6.5273   6.7458
     7.1504   7.2048

          k =-0.2541-0.4514-0.2971 ( 36490 PWs)   bands (ev):

   -44.1481 -44.1481 -22.2602 -22.2602 -22.1824 -22.1824 -22.0837 -22.0837
    -8.0204  -8.0204  -6.9736  -6.9736  -5.8086  -5.8086  -4.7330  -4.7330
    -4.2594  -4.2594   0.6025   0.6025   0.9917   0.9917   1.3357   1.3357
     1.7928   1.7928   2.4448   2.4448   2.6498   2.6498   3.2679   3.2679
     3.4550   3.4550   3.8743   3.8743   4.0073   4.0073   4.2923   4.2923
     4.9678   4.9678   5.7268   5.7268   6.2097   6.2097   6.6095   6.6095
     7.3352   7.3352

          k = 0.0000-0.3869 0.0000 ( 36477 PWs)   bands (ev):

   -44.1485 -44.1484 -22.2622 -22.2622 -22.1729 -22.1729 -22.0849 -22.0847
    -8.2305  -8.0410  -7.1173  -6.9611  -6.1313  -5.4209  -4.8356  -4.7147
    -4.6894  -3.7696   0.2861   0.8157   1.1271   1.2887   1.3427   1.7110
     1.8223   1.9343   2.2499   2.8540   2.9355   3.0131   3.1716   3.2837
     3.4812   3.6862   3.8788   3.9741   4.0222   4.1224   4.3630   4.6165
     4.7327   5.2173   5.7377   6.0568   6.0828   6.0901   6.1146   6.7626
     6.9892   7.1009

          k = 0.0000-0.3869 0.1485 ( 36452 PWs)   bands (ev):

   -44.1485 -44.1484 -22.2622 -22.2622 -22.1729 -22.1729 -22.0848 -22.0847
    -8.2073  -8.0747  -7.0870  -6.9785  -6.0634  -5.5970  -4.8162  -4.7262
    -4.4951  -3.8761   0.3658   0.9596   0.9761   1.1757   1.2699   1.8367
     1.8818   1.9156   2.1109   2.8693   2.9264   3.0277   3.2175   3.3367
     3.4972   3.7781   3.9300   3.9368   4.0754   4.1486   4.2563   4.6541
     4.7238   4.8415   5.9600   6.0012   6.0337   6.2466   6.3264   6.5994
     6.9046   6.9158

          k = 0.0000-0.3869-0.2971 ( 36454 PWs)   bands (ev):

   -44.1485 -44.1485 -22.2622 -22.2622 -22.1729 -22.1729 -22.0848 -22.0848
    -8.1460  -8.1460  -7.0265  -7.0265  -5.8693  -5.8693  -4.7712  -4.7712
    -4.1525  -4.1525   0.6062   0.6062   1.1955   1.1955   1.3838   1.3838
     1.8740   1.8740   2.6242   2.6242   2.9009   2.9009   3.2641   3.2641
     3.8341   3.8341   4.0193   4.0193   4.0718   4.0718   4.3214   4.3214
     4.6977   4.6977   5.9701   5.9701   6.2965   6.2965   6.5633   6.5633
     6.6606   6.6606

          k =-2.0325 0.0000 0.0000 ( 36452 PWs)   bands (ev):

   -44.1485 -44.1484 -22.2622 -22.2622 -22.1729 -22.1729 -22.0849 -22.0847
    -8.2287  -8.0406  -7.1152  -6.9605  -6.1391  -5.4236  -4.8424  -4.7039
    -4.6953  -3.7700   0.2922   0.8200   1.2552   1.2570   1.3522   1.7556
     1.8220   1.9339   2.2486   2.8624   2.9386   3.0262   3.0850   3.1661
     3.4374   3.8525   3.8670   3.8890   3.9797   4.0240   4.3632   4.6035
     4.7316   5.2102   5.7564   6.0742   6.1079   6.1228   6.1253   6.7349
     6.9616   7.1008

          k =-2.0325 0.0000 0.1485 ( 36456 PWs)   bands (ev):

   -44.1485 -44.1484 -22.2622 -22.2622 -22.1729 -22.1729 -22.0848 -22.0847
    -8.2056  -8.0740  -7.0855  -6.9779  -6.0701  -5.6000  -4.8213  -4.7242
    -4.4944  -3.8761   0.3718   0.9678   0.9862   1.2662   1.2900   1.8365
     1.8875   1.9152   2.1356   2.8769   2.9302   2.9947   3.1032   3.2844
     3.4590   3.8898   3.9187   3.9520   4.0033   4.0397   4.2510   4.6473
     4.7225   4.8413   5.9822   6.0264   6.0424   6.2532   6.3295   6.5797
     6.8807   6.9170

          k =-2.0325 0.0000-0.2971 ( 36460 PWs)   bands (ev):

   -44.1485 -44.1485 -22.2622 -22.2622 -22.1729 -22.1729 -22.0848 -22.0848
    -8.1448  -8.1448  -7.0259  -7.0259  -5.8739  -5.8739  -4.7729  -4.7729
    -4.1521  -4.1521   0.6131   0.6131   1.2505   1.2505   1.3949   1.3949
     1.8738   1.8738   2.6372   2.6372   2.9066   2.9066   3.1441   3.1441
     3.8918   3.8918   3.9566   3.9566   4.0623   4.0623   4.3025   4.3025
     4.6952   4.6952   5.9760   5.9760   6.3100   6.3100   6.5671   6.5671
     6.6382   6.6382

     the Fermi energy is     5.3160 ev

!    total energy              =   -4240.93636058 Ry

     total all-electron energy =   -150287.630055 Ry
     estimated scf accuracy    <          1.2E-11 Ry
     smearing contrib. (-TS)   =       0.00000337 Ry
     internal energy E=F+TS    =   -4240.93636395 Ry

     The total energy is F=E-TS. E is the sum of the following terms:
     one-electron contribution =    -168.51365455 Ry
     hartree contribution      =     117.71009919 Ry
     xc contribution           =    -201.60714424 Ry
     ewald contribution        =    -220.98675808 Ry
     one-center paw contrib.   =   -3767.53890627 Ry

     convergence has been achieved in  18 iterations

     Forces acting on atoms (cartesian axes, Ry/au):

     atom    1 type  1   force =     0.00000000    0.01690759    0.00000000
     atom    2 type  1   force =     0.00000000   -0.01690759    0.00000000
     atom    3 type  2   force =     0.00000000   -0.00016690    0.00000000
     atom    4 type  2   force =     0.00000000    0.00016690    0.00000000
     atom    5 type  2   force =     0.00000000   -0.00391451   -0.00233548
     atom    6 type  2   force =     0.00000000    0.00391451    0.00233548
     atom    7 type  2   force =     0.00000000   -0.00391451    0.00233548
     atom    8 type  2   force =     0.00000000    0.00391451   -0.00233548
     atom    9 type  2   force =     0.00000000   -0.03040052   -0.03482024
     atom   10 type  2   force =     0.00000000    0.03040052    0.03482024
     atom   11 type  2   force =     0.00000000   -0.03040052    0.03482024
     atom   12 type  2   force =     0.00000000    0.03040052   -0.03482024

     Total force =     0.095924     Total SCF correction =     0.000004


     Computing stress (Cartesian axis) and pressure

          total   stress  (Ry/bohr**3)                   (kbar)     P=        8.22
   0.00006250   0.00000000   0.00000000            9.19        0.00        0.00
  -0.00000000   0.00003147   0.00000000           -0.00        4.63        0.00
   0.00000000   0.00000000   0.00007362            0.00        0.00       10.83

 
     init_run     :     36.22s CPU     37.39s WALL (       1 calls)
     electrons    :   1763.59s CPU   1781.39s WALL (       1 calls)
     forces       :      7.34s CPU      7.58s WALL (       1 calls)
     stress       :     41.38s CPU     41.99s WALL (       1 calls)

     Called by init_run:
     wfcinit      :     31.26s CPU     31.52s WALL (       1 calls)
     potinit      :      1.55s CPU      1.62s WALL (       1 calls)
     hinit0       :      1.73s CPU      2.26s WALL (       1 calls)

     Called by electrons:
     c_bands      :   1426.13s CPU   1433.58s WALL (      19 calls)
     sum_band     :    302.44s CPU    308.38s WALL (      19 calls)
     v_of_rho     :      8.88s CPU      9.51s WALL (      19 calls)
     newd         :     18.88s CPU     22.89s WALL (      19 calls)
     PAW_pot      :      6.64s CPU      6.65s WALL (      19 calls)
     mix_rho      :      1.65s CPU      1.70s WALL (      19 calls)

     Called by c_bands:
     init_us_2    :     13.97s CPU     14.05s WALL (    2583 calls)
     cegterg      :   1345.43s CPU   1352.10s WALL (    1197 calls)

     Called by *egterg:
     cdiaghg      :     28.06s CPU     28.20s WALL (    8001 calls)
     h_psi        :   1165.36s CPU   1171.72s WALL (    8127 calls)
     s_psi        :     50.60s CPU     50.69s WALL (    8127 calls)
     g_psi        :      2.23s CPU      2.24s WALL (    6867 calls)

     Called by h_psi:
     h_psi:calbec :     43.60s CPU     43.69s WALL (    8127 calls)
     vloc_psi     :   1067.73s CPU   1073.82s WALL (    8127 calls)
     add_vuspsi   :     50.06s CPU     50.15s WALL (    8127 calls)

     General routines
     calbec       :     58.20s CPU     58.33s WALL (    9639 calls)
     fft          :      8.11s CPU      8.85s WALL (     271 calls)
     ffts         :      0.20s CPU      0.20s WALL (      38 calls)
     fftw         :   1089.51s CPU   1095.51s WALL (  431902 calls)
     interpolate  :      0.66s CPU      0.67s WALL (      19 calls)
 
     Parallel routines
     fft_scatt_xy :    254.03s CPU    255.63s WALL (  432211 calls)
     fft_scatt_yz :    314.44s CPU    316.23s WALL (  432211 calls)
 
     PWSCF        :  30m48.99s CPU  31m14.81s WALL

 
   This run was terminated on:  15:17:31  19Nov2021            

=------------------------------------------------------------------------------=
   JOB DONE.
=------------------------------------------------------------------------------=
