
     Program PWSCF v.6.7MaX starts on 19Nov2021 at 14:46:19 

     This program is part of the open-source Quantum ESPRESSO suite
     for quantum simulation of materials; please cite
         "P. Giannozzi et al., J. Phys.:Condens. Matter 21 395502 (2009);
         "P. Giannozzi et al., J. Phys.:Condens. Matter 29 465901 (2017);
          URL http://www.quantum-espresso.org", 
     in publications or presentations arising from this work. More details at
     http://www.quantum-espresso.org/quote

     Parallel version (MPI), running on    10 processors

     MPI processes distributed on     1 nodes
     R & G space division:  proc/nbgrp/npool/nimage =      10
     Waiting for input...
     Reading input from standard input

     Current dimensions of program PWSCF are:
     Max number of different atomic species (ntypx) = 10
     Max number of k-points (npk) =  40000
     Max angular momentum in pseudopotentials (lmaxx) =  3
     file Zr.pbe-spn-kjpaw_psl.1.0.0.UPF: wavefunction(s)  4S 4P renormalized
     file Te.pbe-n-kjpaw_psl.1.0.0.UPF: wavefunction(s)  5S 5P renormalized

     Subspace diagonalization in iterative solution of the eigenvalue problem:
     a serial algorithm will be used

     Message from routine setup:
     using ibrav=0 with symmetry is DISCOURAGED, use correct ibrav instead
 
     Parallelization info
     --------------------
     sticks:   dense  smooth     PW     G-vecs:    dense   smooth      PW
     Min         734     293     87               115340    29174    4753
     Max         735     295     88               115345    29176    4760
     Sum        7345    2937    873              1153415   291749   47557
 


     bravais-lattice index     =            0
     lattice parameter (alat)  =      15.5510  a.u.
     unit-cell volume          =    3018.5011 (a.u.)^3
     number of atoms/cell      =           12
     number of atomic types    =            2
     number of electrons       =        84.00
     number of Kohn-Sham states=           50
     kinetic-energy cutoff     =      80.0000  Ry
     charge density cutoff     =     800.0000  Ry
     scf convergence threshold =      1.0E-10
     mixing beta               =       0.7000
     number of iterations used =            8  plain     mixing
     Exchange-correlation= SLA  PW   PBX  PBC
                           (   1   4   3   4   0   0   0)

     celldm(1)=  15.551040  celldm(2)=   0.000000  celldm(3)=   0.000000
     celldm(4)=   0.000000  celldm(5)=   0.000000  celldm(6)=   0.000000

     crystal axes: (cart. coord. in units of alat)
               a(1) = (   0.246007  -0.969268   0.000000 )  
               a(2) = (   0.246007   0.969268   0.000000 )  
               a(3) = (   0.000000   0.000000   1.683031 )  

     reciprocal axes: (cart. coord. in units 2 pi/alat)
               b(1) = (  2.032465 -0.515853  0.000000 )  
               b(2) = (  2.032465  0.515853  0.000000 )  
               b(3) = (  0.000000  0.000000  0.594166 )  


     PseudoPot. # 1 for Zr read from file:
     pseudo/Zr.pbe-spn-kjpaw_psl.1.0.0.UPF
     MD5 check sum: 02112c41713a0468aff2bb39ef194e36
     Pseudo is Projector augmented-wave + core cor, Zval = 12.0
     Generated using &quot;atomic&quot; code by A. Dal Corso  v.6.2.2
     Shape of augmentation charge: PSQ
     Using radial grid of 1225 points,  6 beta functions with: 
                l(1) =   0
                l(2) =   0
                l(3) =   1
                l(4) =   1
                l(5) =   2
                l(6) =   2
     Q(r) pseudized with 0 coefficients 


     PseudoPot. # 2 for Te read from file:
     pseudo/Te.pbe-n-kjpaw_psl.1.0.0.UPF
     MD5 check sum: 66247bff2bd9dbf220fbb0bf5ab56e9d
     Pseudo is Projector augmented-wave + core cor, Zval =  6.0
     Generated using &quot;atomic&quot; code by A. Dal Corso  v.6.3
     Shape of augmentation charge: PSQ
     Using radial grid of 1245 points,  6 beta functions with: 
                l(1) =   0
                l(2) =   0
                l(3) =   1
                l(4) =   1
                l(5) =   2
                l(6) =   2
     Q(r) pseudized with 0 coefficients 


     atomic species   valence    mass     pseudopotential
        Zr            12.00    91.22000     Zr( 1.00)
        Te             6.00   127.60000     Te( 1.00)

      8 Sym. Ops., with inversion, found ( 4 have fractional translation)



   Cartesian axes

     site n.     atom                  positions (alat units)
         1           Zr  tau(   1) = (   0.0000000   0.6014147   0.4207578  )
         2           Zr  tau(   2) = (   0.2460067   0.3678535   1.2622733  )
         3           Te  tau(   3) = (   0.2460067   0.3341641   0.4207578  )
         4           Te  tau(   4) = (   0.0000000   0.6351040   1.2622733  )
         5           Te  tau(   5) = (   0.2460067   0.8117343   0.2533661  )
         6           Te  tau(   6) = (   0.0000000   0.1575338   1.4296649  )
         7           Te  tau(   7) = (   0.2460067   0.8117343   0.5881494  )
         8           Te  tau(   8) = (   0.0000000   0.1575338   1.0948817  )
         9           Te  tau(   9) = (   0.0000000   0.4222370   0.7378902  )
        10           Te  tau(  10) = (   0.2460067   0.5470312   0.9451409  )
        11           Te  tau(  11) = (   0.0000000   0.4222370   0.1036254  )
        12           Te  tau(  12) = (   0.2460067   0.5470312   1.5794057  )

     number of k points=    63  Methfessel-Paxton smearing, width (Ry)=  0.0030
                       cart. coord. in units 2pi/alat
        k(    1) = (   0.0000000   0.0000000   0.0000000), wk =   0.0078125
        k(    2) = (   0.0000000   0.0000000   0.1485415), wk =   0.0156250
        k(    3) = (   0.0000000   0.0000000  -0.2970830), wk =   0.0078125
        k(    4) = (   0.2540581   0.0644816   0.0000000), wk =   0.0312500
        k(    5) = (   0.2540581   0.0644816   0.1485415), wk =   0.0625000
        k(    6) = (   0.2540581   0.0644816  -0.2970830), wk =   0.0312500
        k(    7) = (   0.5081162   0.1289633   0.0000000), wk =   0.0312500
        k(    8) = (   0.5081162   0.1289633   0.1485415), wk =   0.0625000
        k(    9) = (   0.5081162   0.1289633  -0.2970830), wk =   0.0312500
        k(   10) = (   0.7621743   0.1934449   0.0000000), wk =   0.0312500
        k(   11) = (   0.7621743   0.1934449   0.1485415), wk =   0.0625000
        k(   12) = (   0.7621743   0.1934449  -0.2970830), wk =   0.0312500
        k(   13) = (  -1.0162324  -0.2579266   0.0000000), wk =   0.0156250
        k(   14) = (  -1.0162324  -0.2579266   0.1485415), wk =   0.0312500
        k(   15) = (  -1.0162324  -0.2579266  -0.2970830), wk =   0.0156250
        k(   16) = (   0.5081162   0.0000000   0.0000000), wk =   0.0156250
        k(   17) = (   0.5081162   0.0000000   0.1485415), wk =   0.0312500
        k(   18) = (   0.5081162   0.0000000  -0.2970830), wk =   0.0156250
        k(   19) = (   0.7621743   0.0644816   0.0000000), wk =   0.0312500
        k(   20) = (   0.7621743   0.0644816   0.1485415), wk =   0.0625000
        k(   21) = (   0.7621743   0.0644816  -0.2970830), wk =   0.0312500
        k(   22) = (   1.0162324   0.1289633   0.0000000), wk =   0.0312500
        k(   23) = (   1.0162324   0.1289633   0.1485415), wk =   0.0625000
        k(   24) = (   1.0162324   0.1289633  -0.2970830), wk =   0.0312500
        k(   25) = (  -0.7621743  -0.3224082   0.0000000), wk =   0.0312500
        k(   26) = (  -0.7621743  -0.3224082   0.1485415), wk =   0.0625000
        k(   27) = (  -0.7621743  -0.3224082  -0.2970830), wk =   0.0312500
        k(   28) = (  -0.5081162  -0.2579266   0.0000000), wk =   0.0312500
        k(   29) = (  -0.5081162  -0.2579266   0.1485415), wk =   0.0625000
        k(   30) = (  -0.5081162  -0.2579266  -0.2970830), wk =   0.0312500
        k(   31) = (  -0.2540581  -0.1934449   0.0000000), wk =   0.0312500
        k(   32) = (  -0.2540581  -0.1934449   0.1485415), wk =   0.0625000
        k(   33) = (  -0.2540581  -0.1934449  -0.2970830), wk =   0.0312500
        k(   34) = (   0.0000000  -0.1289633   0.0000000), wk =   0.0156250
        k(   35) = (   0.0000000  -0.1289633   0.1485415), wk =   0.0312500
        k(   36) = (   0.0000000  -0.1289633  -0.2970830), wk =   0.0156250
        k(   37) = (   1.0162324   0.0000000   0.0000000), wk =   0.0156250
        k(   38) = (   1.0162324   0.0000000   0.1485415), wk =   0.0312500
        k(   39) = (   1.0162324   0.0000000  -0.2970830), wk =   0.0156250
        k(   40) = (   1.2702905   0.0644816   0.0000000), wk =   0.0312500
        k(   41) = (   1.2702905   0.0644816   0.1485415), wk =   0.0625000
        k(   42) = (   1.2702905   0.0644816  -0.2970830), wk =   0.0312500
        k(   43) = (  -0.5081162  -0.3868899   0.0000000), wk =   0.0312500
        k(   44) = (  -0.5081162  -0.3868899   0.1485415), wk =   0.0625000
        k(   45) = (  -0.5081162  -0.3868899  -0.2970830), wk =   0.0312500
        k(   46) = (  -0.2540581  -0.3224082   0.0000000), wk =   0.0312500
        k(   47) = (  -0.2540581  -0.3224082   0.1485415), wk =   0.0625000
        k(   48) = (  -0.2540581  -0.3224082  -0.2970830), wk =   0.0312500
        k(   49) = (   0.0000000  -0.2579266   0.0000000), wk =   0.0156250
        k(   50) = (   0.0000000  -0.2579266   0.1485415), wk =   0.0312500
        k(   51) = (   0.0000000  -0.2579266  -0.2970830), wk =   0.0156250
        k(   52) = (   1.5243485   0.0000000   0.0000000), wk =   0.0156250
        k(   53) = (   1.5243485   0.0000000   0.1485415), wk =   0.0312500
        k(   54) = (   1.5243485   0.0000000  -0.2970830), wk =   0.0156250
        k(   55) = (  -0.2540581  -0.4513715   0.0000000), wk =   0.0312500
        k(   56) = (  -0.2540581  -0.4513715   0.1485415), wk =   0.0625000
        k(   57) = (  -0.2540581  -0.4513715  -0.2970830), wk =   0.0312500
        k(   58) = (   0.0000000  -0.3868899   0.0000000), wk =   0.0156250
        k(   59) = (   0.0000000  -0.3868899   0.1485415), wk =   0.0312500
        k(   60) = (   0.0000000  -0.3868899  -0.2970830), wk =   0.0156250
        k(   61) = (  -2.0324647   0.0000000   0.0000000), wk =   0.0078125
        k(   62) = (  -2.0324647   0.0000000   0.1485415), wk =   0.0156250
        k(   63) = (  -2.0324647   0.0000000  -0.2970830), wk =   0.0078125

     Dense  grid:  1153415 G-vectors     FFT dimensions: ( 144, 144, 240)

     Smooth grid:   291749 G-vectors     FFT dimensions: (  90,  90, 150)

     Estimated max dynamical RAM per process >     657.19 MB

     Estimated total dynamical RAM >       6.42 GB

     Initial potential from superposition of free atoms

     starting charge   83.99353, renormalised to   84.00000
     Starting wfcs are   66 randomized atomic wfcs
     Checking if some PAW data can be deallocated... 

     total cpu time spent up to now is       43.2 secs

     Self-consistent Calculation

     iteration #  1     ecut=    80.00 Ry     beta= 0.70
     Davidson diagonalization with overlap
     ethr =  1.00E-02,  avg # of iterations =  2.1

     Threshold (ethr) on eigenvalues was too large:
     Diagonalizing with lowered threshold

     Davidson diagonalization with overlap
     ethr =  4.55E-04,  avg # of iterations =  4.0

     total cpu time spent up to now is      202.2 secs

     total energy              =   -4240.71314188 Ry
     estimated scf accuracy    <       0.44782570 Ry

     iteration #  2     ecut=    80.00 Ry     beta= 0.70
     Davidson diagonalization with overlap
     ethr =  5.33E-04,  avg # of iterations =  8.0

     total cpu time spent up to now is      314.8 secs

     total energy              =   -4240.61461731 Ry
     estimated scf accuracy    <       2.04044955 Ry

     iteration #  3     ecut=    80.00 Ry     beta= 0.70
     Davidson diagonalization with overlap
     ethr =  5.33E-04,  avg # of iterations =  5.5

     total cpu time spent up to now is      408.5 secs

     total energy              =   -4240.92836677 Ry
     estimated scf accuracy    <       0.00804040 Ry

     iteration #  4     ecut=    80.00 Ry     beta= 0.70
     Davidson diagonalization with overlap
     c_bands:  1 eigenvalues not converged
     c_bands:  2 eigenvalues not converged
     c_bands:  2 eigenvalues not converged
     c_bands:  1 eigenvalues not converged
     c_bands:  2 eigenvalues not converged
     c_bands:  1 eigenvalues not converged
     c_bands:  1 eigenvalues not converged
     c_bands:  2 eigenvalues not converged
     c_bands:  2 eigenvalues not converged
     c_bands:  1 eigenvalues not converged
     c_bands:  1 eigenvalues not converged
     c_bands:  2 eigenvalues not converged
     c_bands:  1 eigenvalues not converged
     c_bands:  1 eigenvalues not converged
     c_bands:  3 eigenvalues not converged
     c_bands:  1 eigenvalues not converged
     c_bands:  2 eigenvalues not converged
     c_bands:  1 eigenvalues not converged
     ethr =  9.57E-06,  avg # of iterations = 17.7

     total cpu time spent up to now is      588.1 secs

     total energy              =   -4240.93867059 Ry
     estimated scf accuracy    <       0.04430793 Ry

     iteration #  5     ecut=    80.00 Ry     beta= 0.70
     Davidson diagonalization with overlap
     ethr =  9.57E-06,  avg # of iterations =  6.9

     total cpu time spent up to now is      682.0 secs

     total energy              =   -4240.94052863 Ry
     estimated scf accuracy    <       0.00757674 Ry

     iteration #  6     ecut=    80.00 Ry     beta= 0.70
     Davidson diagonalization with overlap
     ethr =  9.02E-06,  avg # of iterations =  3.1

     total cpu time spent up to now is      758.3 secs

     total energy              =   -4240.94113018 Ry
     estimated scf accuracy    <       0.00107486 Ry

     iteration #  7     ecut=    80.00 Ry     beta= 0.70
     Davidson diagonalization with overlap
     ethr =  1.28E-06,  avg # of iterations = 10.3

     total cpu time spent up to now is      877.7 secs

     total energy              =   -4240.94163199 Ry
     estimated scf accuracy    <       0.00104469 Ry

     iteration #  8     ecut=    80.00 Ry     beta= 0.70
     Davidson diagonalization with overlap
     ethr =  1.24E-06,  avg # of iterations =  2.2

     total cpu time spent up to now is      947.3 secs

     total energy              =   -4240.94167059 Ry
     estimated scf accuracy    <       0.00014006 Ry

     iteration #  9     ecut=    80.00 Ry     beta= 0.70
     Davidson diagonalization with overlap
     ethr =  1.67E-07,  avg # of iterations =  6.4

     total cpu time spent up to now is     1040.2 secs

     total energy              =   -4240.94171904 Ry
     estimated scf accuracy    <       0.00002248 Ry

     iteration # 10     ecut=    80.00 Ry     beta= 0.70
     Davidson diagonalization with overlap
     ethr =  2.68E-08,  avg # of iterations =  2.6

     total cpu time spent up to now is     1112.7 secs

     total energy              =   -4240.94172150 Ry
     estimated scf accuracy    <       0.00000205 Ry

     iteration # 11     ecut=    80.00 Ry     beta= 0.70
     Davidson diagonalization with overlap
     ethr =  2.44E-09,  avg # of iterations =  6.8

     total cpu time spent up to now is     1215.0 secs

     total energy              =   -4240.94172298 Ry
     estimated scf accuracy    <       0.00000091 Ry

     iteration # 12     ecut=    80.00 Ry     beta= 0.70
     Davidson diagonalization with overlap
     ethr =  1.09E-09,  avg # of iterations =  2.1

     total cpu time spent up to now is     1284.0 secs

     total energy              =   -4240.94172300 Ry
     estimated scf accuracy    <       0.00000015 Ry

     iteration # 13     ecut=    80.00 Ry     beta= 0.70
     Davidson diagonalization with overlap
     ethr =  1.84E-10,  avg # of iterations =  6.1

     total cpu time spent up to now is     1379.0 secs

     total energy              =   -4240.94172307 Ry
     estimated scf accuracy    <       0.00000004 Ry

     iteration # 14     ecut=    80.00 Ry     beta= 0.70
     Davidson diagonalization with overlap
     ethr =  5.17E-11,  avg # of iterations =  1.7

     total cpu time spent up to now is     1446.4 secs

     total energy              =   -4240.94172307 Ry
     estimated scf accuracy    <       0.00000002 Ry

     iteration # 15     ecut=    80.00 Ry     beta= 0.70
     Davidson diagonalization with overlap
     ethr =  2.21E-11,  avg # of iterations =  4.8

     total cpu time spent up to now is     1527.3 secs

     total energy              =   -4240.94172307 Ry
     estimated scf accuracy    <          1.1E-10 Ry

     iteration # 16     ecut=    80.00 Ry     beta= 0.70
     Davidson diagonalization with overlap
     ethr =  1.28E-13,  avg # of iterations = 11.0

     total cpu time spent up to now is     1666.7 secs

     total energy              =   -4240.94172307 Ry
     estimated scf accuracy    <          1.4E-09 Ry

     iteration # 17     ecut=    80.00 Ry     beta= 0.70
     Davidson diagonalization with overlap
     ethr =  1.28E-13,  avg # of iterations =  4.7

     total cpu time spent up to now is     1754.5 secs

     total energy              =   -4240.94172307 Ry
     estimated scf accuracy    <          3.7E-10 Ry

     iteration # 18     ecut=    80.00 Ry     beta= 0.70
     Davidson diagonalization with overlap
     ethr =  1.28E-13,  avg # of iterations =  5.5

     total cpu time spent up to now is     1839.6 secs

     End of self-consistent calculation

          k = 0.0000 0.0000 0.0000 ( 36359 PWs)   bands (ev):

   -44.1451 -44.1451 -22.2607 -22.2607 -22.1710 -22.1710 -22.0806 -22.0804
    -8.1708  -7.9532  -7.1303  -6.9476  -6.1212  -5.4084  -4.7958  -4.7465
    -4.7401  -3.7801   0.2392   0.7836   0.8238   1.1556   1.3098   1.5355
     1.9090   2.0416   2.2687   2.8010   2.9167   2.9871   3.2756   3.3636
     3.8288   3.9245   4.0770   4.0963   4.3405   4.3441   4.4488   4.7113
     4.7289   5.3359   5.6314   5.8789   5.8971   5.9351   6.0297   6.7437
     7.0793   7.2840

          k = 0.0000 0.0000 0.1485 ( 36415 PWs)   bands (ev):

   -44.1451 -44.1451 -22.2607 -22.2607 -22.1710 -22.1710 -22.0805 -22.0804
    -8.1452  -7.9937  -7.0918  -6.9657  -6.0567  -5.5936  -4.7870  -4.7535
    -4.5274  -3.8896   0.3164   0.8474   0.9237   0.9401   1.1123   1.8613
     1.9255   2.0105   2.0185   2.8225   2.9034   3.0427   3.3893   3.4590
     3.7864   3.9742   4.0466   4.1096   4.2689   4.3763   4.4561   4.7056
     4.7226   4.8798   5.8431   5.8724   5.8794   6.1777   6.3168   6.5954
     6.8898   7.1237

          k = 0.0000 0.0000-0.2971 ( 36410 PWs)   bands (ev):

   -44.1451 -44.1451 -22.2607 -22.2607 -22.1710 -22.1710 -22.0805 -22.0805
    -8.0764  -8.0764  -7.0191  -7.0191  -5.8679  -5.8679  -4.7702  -4.7702
    -4.1736  -4.1736   0.5465   0.5465   0.9717   0.9717   1.3447   1.3447
     1.9689   1.9689   2.5642   2.5642   2.8669   2.8669   3.5965   3.5965
     3.9286   3.9286   4.1087   4.1087   4.3069   4.3069   4.4359   4.4359
     4.7098   4.7098   5.8711   5.8711   6.2206   6.2206   6.5201   6.5201
     6.7954   6.7954

          k = 0.2541 0.0645 0.0000 ( 36396 PWs)   bands (ev):

   -44.1448 -44.1448 -22.2588 -22.2588 -22.1806 -22.1805 -22.0795 -22.0793
    -8.0462  -7.8312  -7.0651  -6.8984  -6.0619  -5.3603  -4.7895  -4.7492
    -4.7007  -3.9578   0.3202   0.8966   0.9483   0.9629   1.2608   1.5026
     1.5369   1.5946   1.7810   2.5910   2.6212   3.2134   3.2770   3.7028
     3.7807   3.7854   3.8776   3.8961   4.0717   4.2632   4.3367   4.4116
     4.4616   4.5909   5.9192   5.9806   6.1668   6.4975   6.5244   6.6771
     7.0427   7.2266

          k = 0.2541 0.0645 0.1485 ( 36423 PWs)   bands (ev):

   -44.1448 -44.1448 -22.2588 -22.2588 -22.1806 -22.1805 -22.0794 -22.0793
    -8.0209  -7.8713  -7.0297  -6.9149  -5.9971  -5.5420  -4.7517  -4.7097
    -4.5820  -4.0439   0.3862   0.8221   0.9138   0.9888   1.2036   1.2209
     1.6805   1.7186   2.0945   2.5911   2.6030   2.9498   3.4092   3.4237
     3.5219   3.8425   3.9644   4.0226   4.0608   4.2103   4.3979   4.4273
     4.6866   4.7380   5.8817   6.0052   6.1256   6.2329   6.3118   6.7998
     7.2109   7.2495

          k = 0.2541 0.0645-0.2971 ( 36436 PWs)   bands (ev):

   -44.1448 -44.1448 -22.2588 -22.2588 -22.1806 -22.1806 -22.0794 -22.0794
    -7.9530  -7.9530  -6.9635  -6.9635  -5.8099  -5.8099  -4.7304  -4.7304
    -4.2764  -4.2764   0.5738   0.5738   0.9898   0.9898   1.1113   1.1113
     1.7998   1.7998   2.4876   2.4876   2.6508   2.6508   3.2662   3.2662
     3.6752   3.6752   4.0017   4.0017   4.1640   4.1640   4.4235   4.4235
     4.9321   4.9321   5.7943   5.7943   6.1441   6.1441   6.4675   6.4675
     7.3644   7.3644

          k = 0.5081 0.1290 0.0000 ( 36499 PWs)   bands (ev):

   -44.1439 -44.1439 -22.2541 -22.2541 -22.2035 -22.2035 -22.0768 -22.0767
    -7.6825  -7.4731  -6.9096  -6.7758  -5.8909  -5.2422  -5.0032  -4.6358
    -4.5887  -4.4786   0.0786   0.4822   0.6904   1.0306   1.1646   1.3037
     1.6328   1.7121   1.8039   2.0826   2.1460   2.3830   2.5503   3.4245
     3.4893   3.5470   3.5708   3.6582   3.7675   3.8533   3.9886   4.2190
     4.3190   4.8883   5.8073   6.1517   6.2605   6.6079   6.6409   7.0397
     7.4397   7.5541

          k = 0.5081 0.1290 0.1485 ( 36476 PWs)   bands (ev):

   -44.1439 -44.1439 -22.2541 -22.2541 -22.2035 -22.2035 -22.0768 -22.0767
    -7.6582  -7.5130  -6.8806  -6.7891  -5.8288  -5.4192  -4.8606  -4.6238
    -4.6093  -4.4960   0.1298   0.4594   0.7746   0.8785   1.1769   1.2740
     1.4014   1.5784   2.0049   2.0916   2.3265   2.4828   2.8559   3.3778
     3.4513   3.4993   3.5265   3.6744   3.7542   3.7836   3.8711   4.2531
     4.2984   4.4689   6.2307   6.2737   6.4219   6.6077   6.6957   6.9099
     7.2919   7.5259

          k = 0.5081 0.1290-0.2971 ( 36466 PWs)   bands (ev):

   -44.1439 -44.1439 -22.2541 -22.2541 -22.2035 -22.2035 -22.0768 -22.0768
    -7.5927  -7.5927  -6.8276  -6.8276  -5.6568  -5.6568  -4.7108  -4.7108
    -4.5503  -4.5503   0.2861   0.2861   0.9719   0.9719   0.9938   0.9938
     1.4578   1.4578   2.0550   2.0550   2.6621   2.6621   3.1841   3.1841
     3.3912   3.3912   3.5789   3.5789   3.7516   3.7516   3.8987   3.8987
     4.3342   4.3342   6.4667   6.4667   6.5705   6.5705   6.8822   6.8822
     7.2276   7.2276

          k = 0.7622 0.1934 0.0000 ( 36521 PWs)   bands (ev):

   -44.1430 -44.1430 -22.2493 -22.2493 -22.2264 -22.2264 -22.0741 -22.0741
    -7.1303  -6.9079  -6.7637  -6.6232  -5.7271  -5.5011  -5.1497  -5.1457
    -4.5090  -4.4712  -0.1855   0.0222   0.2566   0.9317   0.9336   1.2954
     1.4879   1.5986   2.0094   2.1955   2.2286   2.2427   2.4481   2.8088
     2.9767   3.2481   3.3564   3.4763   3.5081   3.6685   3.7440   3.7464
     3.8525   4.5816   6.1272   6.4420   6.5328   6.9279   6.9528   7.0121
     7.3812   7.6361

          k = 0.7622 0.1934 0.1485 ( 36503 PWs)   bands (ev):

   -44.1430 -44.1430 -22.2493 -22.2493 -22.2264 -22.2264 -22.0741 -22.0741
    -7.1079  -6.9616  -6.7237  -6.6352  -5.6907  -5.5293  -5.1551  -5.1508
    -4.5015  -4.4751  -0.1533   0.1442   0.1641   0.8003   0.9543   1.2460
     1.4976   1.6019   1.9988   2.0350   2.1377   2.5829   2.7006   2.8938
     2.9381   3.0382   3.2725   3.3613   3.5123   3.6069   3.7362   3.9304
     3.9843   4.4665   5.9565   6.4292   6.7348   6.8756   7.0309   7.0588
     7.1710   7.6566

          k = 0.7622 0.1934-0.2971 ( 36522 PWs)   bands (ev):

   -44.1430 -44.1430 -22.2493 -22.2493 -22.2264 -22.2264 -22.0741 -22.0741
    -7.0456  -7.0456  -6.6701  -6.6701  -5.6061  -5.6061  -5.1578  -5.1578
    -4.4866  -4.4866  -0.0273  -0.0273   0.4609   0.4609   1.0799   1.0799
     1.5570   1.5570   1.9995   1.9995   2.4293   2.4293   2.8429   2.8429
     2.9654   2.9654   3.2748   3.2748   3.5962   3.5962   3.9548   3.9548
     4.0650   4.0650   6.3422   6.3422   6.5184   6.5184   7.0569   7.0569
     7.5466   7.5466

          k =-1.0162-0.2579 0.0000 ( 36506 PWs)   bands (ev):

   -44.1426 -44.1426 -22.2473 -22.2473 -22.2359 -22.2359 -22.0730 -22.0730
    -6.7536  -6.7328  -6.2287  -6.2171  -6.2059  -6.2012  -5.2044  -5.2039
    -4.4511  -4.4218  -0.1255  -0.1061   0.1814   0.2030   1.0112   1.0191
     1.4668   1.6606   2.2153   2.3781   2.4002   2.4262   2.7988   2.8294
     2.8300   2.8627   3.1822   3.2398   3.3051   3.3614   3.4386   3.6280
     3.9380   4.2026   6.6618   6.7326   6.7606   6.7791   7.1086   7.2041
     7.2059   7.2718

          k =-1.0162-0.2579 0.1485 ( 36506 PWs)   bands (ev):

   -44.1426 -44.1426 -22.2473 -22.2473 -22.2359 -22.2359 -22.0730 -22.0730
    -6.7489  -6.7340  -6.2601  -6.2528  -6.1736  -6.1693  -5.2027  -5.2024
    -4.4492  -4.4285  -0.2191  -0.2132   0.3744   0.3825   1.0065   1.0169
     1.4598   1.5912   2.0637   2.1913   2.3462   2.3939   2.6524   2.6683
     2.9274   3.0356   3.0968   3.2064   3.5300   3.5560   3.5860   3.7118
     4.0795   4.2285   6.2364   6.2577   6.5691   6.6463   7.2147   7.2234
     7.4281   7.4976

          k =-1.0162-0.2579-0.2971 ( 36528 PWs)   bands (ev):

   -44.1426 -44.1426 -22.2473 -22.2473 -22.2359 -22.2359 -22.0730 -22.0730
    -6.7397  -6.7397  -6.2741  -6.2741  -6.1553  -6.1553  -5.2009  -5.2009
    -4.4412  -4.4412  -0.2776  -0.2776   0.5603   0.5603   0.9754   0.9754
     1.5058   1.5058   1.9192   1.9192   2.3508   2.3508   2.7599   2.7599
     2.8284   2.8284   3.1919   3.1919   3.6323   3.6323   3.7866   3.7866
     4.3118   4.3118   5.8713   5.8713   6.5125   6.5125   7.2331   7.2331
     7.5628   7.5628

          k = 0.5081 0.0000 0.0000 ( 36503 PWs)   bands (ev):

   -44.1439 -44.1439 -22.2541 -22.2541 -22.2035 -22.2035 -22.0768 -22.0767
    -7.6847  -7.4735  -6.9099  -6.7743  -5.8878  -5.2417  -5.0007  -4.6292
    -4.5965  -4.4781   0.0832   0.4763   0.6896   1.0490   1.1606   1.2557
     1.6270   1.7027   1.7906   2.0898   2.1423   2.3696   2.5529   3.4170
     3.5178   3.5614   3.5914   3.6314   3.7792   3.9051   3.9696   4.2565
     4.3218   4.8798   5.8135   6.1275   6.2940   6.5711   6.5888   7.0772
     7.4461   7.5775

          k = 0.5081 0.0000 0.1485 ( 36453 PWs)   bands (ev):

   -44.1439 -44.1439 -22.2541 -22.2541 -22.2035 -22.2035 -22.0768 -22.0767
    -7.6603  -7.5139  -6.8802  -6.7876  -5.8263  -5.4184  -4.8571  -4.6245
    -4.6085  -4.4977   0.1331   0.4530   0.7769   0.8842   1.1914   1.2508
     1.3662   1.5560   2.0040   2.1054   2.3185   2.4659   2.8560   3.3946
     3.4697   3.4827   3.5381   3.6908   3.7405   3.8444   3.8467   4.2994
     4.3055   4.4531   6.2181   6.2845   6.4409   6.5632   6.6577   6.9435
     7.3064   7.5410

          k = 0.5081 0.0000-0.2971 ( 36452 PWs)   bands (ev):

   -44.1439 -44.1439 -22.2541 -22.2541 -22.2035 -22.2035 -22.0768 -22.0768
    -7.5943  -7.5943  -6.8264  -6.8264  -5.6554  -5.6554  -4.7073  -4.7073
    -4.5529  -4.5529   0.2855   0.2855   0.9723   0.9723   0.9975   0.9975
     1.4233   1.4233   2.0590   2.0590   2.6519   2.6519   3.1859   3.1859
     3.3995   3.3995   3.5834   3.5834   3.7825   3.7825   3.8883   3.8883
     4.3522   4.3522   6.4813   6.4813   6.5346   6.5346   6.9005   6.9005
     7.2286   7.2286

          k = 0.7622 0.0645 0.0000 ( 36505 PWs)   bands (ev):

   -44.1430 -44.1430 -22.2493 -22.2493 -22.2264 -22.2264 -22.0741 -22.0741
    -7.1360  -6.9088  -6.7610  -6.6190  -5.7276  -5.4989  -5.1493  -5.1454
    -4.4980  -4.4829  -0.1767   0.0198   0.2662   0.9217   0.9641   1.3087
     1.4562   1.5610   1.9724   2.2016   2.2397   2.2639   2.3862   2.7845
     2.9669   3.2929   3.3674   3.4811   3.5733   3.6747   3.6996   3.7533
     3.8366   4.6053   6.1246   6.4142   6.5547   6.9257   6.9719   6.9840
     7.3899   7.6718

          k = 0.7622 0.0645 0.1485 ( 36509 PWs)   bands (ev):

   -44.1430 -44.1430 -22.2493 -22.2493 -22.2264 -22.2264 -22.0741 -22.0741
    -7.1132  -6.9640  -6.7198  -6.6308  -5.6912  -5.5281  -5.1546  -5.1500
    -4.4938  -4.4834  -0.1449   0.1467   0.1665   0.7899   0.9818   1.2593
     1.4687   1.5986   1.9748   1.9991   2.1051   2.5853   2.7008   2.8840
     2.9240   3.0432   3.3137   3.3654   3.5577   3.5971   3.7058   3.9658
     3.9775   4.4597   5.9808   6.4057   6.7518   6.8765   7.0038   7.0998
     7.1431   7.6810

          k = 0.7622 0.0645-0.2971 ( 36472 PWs)   bands (ev):

   -44.1430 -44.1430 -22.2493 -22.2493 -22.2264 -22.2264 -22.0741 -22.0741
    -7.0498  -7.0498  -6.6655  -6.6655  -5.6063  -5.6063  -5.1569  -5.1569
    -4.4867  -4.4867  -0.0190  -0.0190   0.4540   0.4540   1.0995   1.0995
     1.5519   1.5519   1.9462   1.9462   2.4239   2.4239   2.8474   2.8474
     2.9444   2.9444   3.3256   3.3256   3.5931   3.5931   3.9605   3.9605
     4.0557   4.0557   6.3695   6.3695   6.5174   6.5174   7.0269   7.0269
     7.5739   7.5739

          k = 1.0162 0.1290 0.0000 ( 36514 PWs)   bands (ev):

   -44.1426 -44.1426 -22.2473 -22.2473 -22.2359 -22.2359 -22.0730 -22.0730
    -6.7537  -6.7328  -6.2285  -6.2172  -6.2059  -6.2012  -5.2044  -5.2039
    -4.4511  -4.4218  -0.1312  -0.1003   0.1786   0.2059   1.0031   1.0280
     1.4737   1.6504   2.2115   2.3840   2.4042   2.4194   2.7714   2.8318
     2.8563   2.8762   3.2028   3.2073   3.2929   3.3472   3.4829   3.6122
     3.9212   4.2192   6.6558   6.7417   6.7442   6.7955   7.1332   7.2042
     7.2079   7.2512

          k = 1.0162 0.1290 0.1485 ( 36524 PWs)   bands (ev):

   -44.1426 -44.1426 -22.2473 -22.2473 -22.2359 -22.2359 -22.0730 -22.0730
    -6.7489  -6.7340  -6.2601  -6.2528  -6.1736  -6.1694  -5.2027  -5.2024
    -4.4492  -4.4285  -0.2215  -0.2111   0.3757   0.3817   1.0051   1.0184
     1.4661   1.5847   2.0728   2.1743   2.3492   2.3931   2.6281   2.6991
     2.9260   3.0471   3.0967   3.1973   3.5139   3.5440   3.6237   3.7040
     4.0582   4.2479   6.2316   6.2676   6.5655   6.6487   7.2173   7.2233
     7.4388   7.4883

          k = 1.0162 0.1290-0.2971 ( 36516 PWs)   bands (ev):

   -44.1426 -44.1426 -22.2473 -22.2473 -22.2359 -22.2359 -22.0730 -22.0730
    -6.7397  -6.7397  -6.2741  -6.2741  -6.1553  -6.1553  -5.2009  -5.2009
    -4.4412  -4.4412  -0.2777  -0.2777   0.5606   0.5606   0.9751   0.9751
     1.5070   1.5070   1.9199   1.9199   2.3444   2.3444   2.7397   2.7397
     2.8617   2.8617   3.1820   3.1820   3.6340   3.6340   3.7857   3.7857
     4.3124   4.3124   5.8741   5.8741   6.5117   6.5117   7.2340   7.2340
     7.5639   7.5639

          k =-0.7622-0.3224 0.0000 ( 36511 PWs)   bands (ev):

   -44.1430 -44.1430 -22.2493 -22.2493 -22.2264 -22.2264 -22.0741 -22.0741
    -7.1220  -6.9065  -6.7681  -6.6286  -5.7266  -5.5042  -5.1498  -5.1465
    -4.5174  -4.4618  -0.1977   0.0260   0.2428   0.8998   0.9456   1.2792
     1.5034   1.6660   2.0860   2.1803   2.2153   2.2549   2.4641   2.8457
     2.9865   3.2131   3.3431   3.4718   3.4876   3.6250   3.6838   3.7174
     3.9717   4.5400   6.1310   6.4662   6.5306   6.8467   6.9936   7.0795
     7.3572   7.5861

          k =-0.7622-0.3224 0.1485 ( 36492 PWs)   bands (ev):

   -44.1430 -44.1430 -22.2493 -22.2493 -22.2264 -22.2264 -22.0741 -22.0741
    -7.1001  -6.9581  -6.7297  -6.6412  -5.6900  -5.5310  -5.1555  -5.1521
    -4.5073  -4.4685  -0.1651   0.1397   0.1614   0.8146   0.9229   1.2277
     1.5257   1.6141   2.0021   2.1242   2.1853   2.5813   2.6768   2.9158
     2.9444   3.0578   3.2331   3.3365   3.4750   3.5856   3.7608   3.8790
     4.0156   4.4742   5.9245   6.4663   6.7030   6.8718   7.0134   7.0925
     7.1960   7.6032

          k =-0.7622-0.3224-0.2971 ( 36508 PWs)   bands (ev):

   -44.1430 -44.1430 -22.2493 -22.2493 -22.2264 -22.2264 -22.0741 -22.0741
    -7.0394  -7.0394  -6.6770  -6.6770  -5.6059  -5.6059  -5.1591  -5.1591
    -4.4863  -4.4863  -0.0387  -0.0387   0.4701   0.4701   1.0564   1.0564
     1.5650   1.5650   2.0644   2.0644   2.4499   2.4499   2.8378   2.8378
     2.9952   2.9952   3.2040   3.2040   3.5935   3.5935   3.9196   3.9196
     4.1041   4.1041   6.3080   6.3080   6.5178   6.5178   7.1047   7.1047
     7.4957   7.4957

          k =-0.5081-0.2579 0.0000 ( 36480 PWs)   bands (ev):

   -44.1439 -44.1439 -22.2541 -22.2541 -22.2035 -22.2035 -22.0768 -22.0767
    -7.6771  -7.4721  -6.9092  -6.7789  -5.8983  -5.2434  -5.0091  -4.6454
    -4.5762  -4.4798   0.0676   0.4959   0.6905   1.0038   1.1742   1.4125
     1.6426   1.7439   1.8368   2.0703   2.1451   2.4109   2.5422   3.3922
     3.4459   3.5431   3.5501   3.6944   3.7052   3.7659   4.0322   4.1317
     4.3091   4.9066   5.7947   6.1685   6.2237   6.7026   6.7655   6.9519
     7.4167   7.5021

          k =-0.5081-0.2579 0.1485 ( 36485 PWs)   bands (ev):

   -44.1439 -44.1439 -22.2541 -22.2541 -22.2035 -22.2035 -22.0768 -22.0767
    -7.6531  -7.5108  -6.8817  -6.7924  -5.8349  -5.4209  -4.8690  -4.6218
    -4.6114  -4.4918   0.1221   0.4745   0.7694   0.8641   1.1657   1.3039
     1.4967   1.6414   1.9959   2.0674   2.3440   2.5169   2.8547   3.3098
     3.4505   3.5026   3.5125   3.6459   3.6650   3.7724   3.9156   4.1684
     4.2644   4.4964   6.2369   6.2655   6.3829   6.7043   6.7991   6.8376
     7.2491   7.4943

          k =-0.5081-0.2579-0.2971 ( 36478 PWs)   bands (ev):

   -44.1439 -44.1439 -22.2541 -22.2541 -22.2035 -22.2035 -22.0768 -22.0768
    -7.5888  -7.5888  -6.8306  -6.8306  -5.6602  -5.6602  -4.7188  -4.7188
    -4.5445  -4.5445   0.2872   0.2872   0.9692   0.9692   0.9883   0.9883
     1.5485   1.5485   2.0397   2.0397   2.6927   2.6927   3.1613   3.1613
     3.3736   3.3736   3.5531   3.5531   3.7032   3.7032   3.9207   3.9207
     4.2931   4.2931   6.4333   6.4333   6.6482   6.6482   6.8415   6.8415
     7.2324   7.2324

          k =-0.2541-0.1934 0.0000 ( 36410 PWs)   bands (ev):

   -44.1448 -44.1448 -22.2588 -22.2588 -22.1806 -22.1805 -22.0795 -22.0793
    -8.0425  -7.8304  -7.0612  -6.9000  -6.0734  -5.3640  -4.8064  -4.7495
    -4.6867  -3.9586   0.3434   0.8980   0.9613   1.0142   1.2883   1.5394
     1.5627   1.6001   1.8034   2.5604   2.6116   3.2045   3.3342   3.6805
     3.7267   3.7449   3.8661   3.8825   3.9159   4.1961   4.3187   4.3552
     4.3731   4.6345   5.9770   6.0224   6.2453   6.5112   6.5135   6.7411
     7.0135   7.1486

          k =-0.2541-0.1934 0.1485 ( 36427 PWs)   bands (ev):

   -44.1448 -44.1448 -22.2588 -22.2588 -22.1806 -22.1805 -22.0794 -22.0793
    -8.0175  -7.8698  -7.0274  -6.9163  -6.0070  -5.5461  -4.7679  -4.7020
    -4.5778  -4.0440   0.4092   0.8240   0.9223   1.0589   1.2199   1.2574
     1.6829   1.7314   2.1278   2.5602   2.5982   2.9451   3.4232   3.4664
     3.5331   3.7590   3.8472   3.9077   4.0158   4.1796   4.3577   4.3743
     4.6516   4.7748   5.8836   6.0259   6.1306   6.3068   6.3804   6.7989
     7.1716   7.2408

          k =-0.2541-0.1934-0.2971 ( 36422 PWs)   bands (ev):

   -44.1448 -44.1448 -22.2588 -22.2588 -22.1806 -22.1806 -22.0794 -22.0794
    -7.9503  -7.9503  -6.9636  -6.9636  -5.8165  -5.8165  -4.7340  -4.7340
    -4.2750  -4.2750   0.5930   0.5930   1.0068   1.0068   1.1547   1.1547
     1.8069   1.8069   2.4874   2.4874   2.6521   2.6521   3.2738   3.2738
     3.6887   3.6887   3.8437   3.8437   4.1392   4.1392   4.3704   4.3704
     4.9479   4.9479   5.7674   5.7674   6.1882   6.1882   6.5089   6.5089
     7.3537   7.3538

          k = 0.0000-0.1290 0.0000 ( 36417 PWs)   bands (ev):

   -44.1451 -44.1451 -22.2607 -22.2607 -22.1710 -22.1710 -22.0806 -22.0804
    -8.1689  -7.9528  -7.1275  -6.9483  -6.1286  -5.4111  -4.8059  -4.7540
    -4.7243  -3.7805   0.2549   0.7868   0.8644   1.1667   1.3212   1.5672
     1.9088   2.0411   2.2664   2.8079   2.9199   2.9889   3.2733   3.4023
     3.7968   3.9131   3.9448   4.0128   4.2867   4.3444   4.4023   4.6984
     4.7278   5.3126   5.6507   5.9216   5.9299   5.9829   6.0376   6.7592
     7.0794   7.2288

          k = 0.0000-0.1290 0.1485 ( 36419 PWs)   bands (ev):

   -44.1451 -44.1451 -22.2607 -22.2607 -22.1710 -22.1710 -22.0805 -22.0804
    -8.1434  -7.9929  -7.0899  -6.9662  -6.0632  -5.5966  -4.7959  -4.7481
    -4.5261  -3.8897   0.3324   0.8917   0.9310   0.9434   1.1332   1.8657
     1.9254   2.0181   2.0283   2.8289   2.9072   3.0476   3.3712   3.4976
     3.7855   3.9216   3.9635   4.0030   4.2651   4.3220   4.4116   4.6976
     4.7213   4.8735   5.8595   5.9015   5.9285   6.1839   6.3282   6.6064
     6.8910   7.0894

          k = 0.0000-0.1290-0.2971 ( 36464 PWs)   bands (ev):

   -44.1451 -44.1451 -22.2607 -22.2607 -22.1710 -22.1710 -22.0805 -22.0805
    -8.0750  -8.0750  -7.0187  -7.0187  -5.8724  -5.8724  -4.7719  -4.7719
    -4.1731  -4.1731   0.5648   0.5648   0.9971   0.9971   1.3499   1.3499
     1.9686   1.9686   2.5765   2.5765   2.8720   2.8720   3.6014   3.6014
     3.8643   3.8643   4.1002   4.1002   4.2268   4.2268   4.4205   4.4205
     4.7069   4.7069   5.9030   5.9030   6.2338   6.2338   6.5235   6.5235
     6.7854   6.7854

          k = 1.0162 0.0000 0.0000 ( 36499 PWs)   bands (ev):

   -44.1426 -44.1426 -22.2473 -22.2473 -22.2359 -22.2359 -22.0730 -22.0730
    -6.7537  -6.7328  -6.2284  -6.2174  -6.2059  -6.2012  -5.2044  -5.2039
    -4.4511  -4.4218  -0.1352  -0.0962   0.1764   0.2082   0.9989   1.0330
     1.4816   1.6393   2.2079   2.3943   2.4081   2.4083   2.7601   2.8407
     2.8434   2.9071   3.1841   3.2300   3.2762   3.3261   3.5388   3.5791
     3.9062   4.2339   6.6509   6.7349   6.7499   6.8049   7.1777   7.2047
     7.2097   7.2107

          k = 1.0162 0.0000 0.1485 ( 36485 PWs)   bands (ev):

   -44.1426 -44.1426 -22.2473 -22.2473 -22.2359 -22.2359 -22.0730 -22.0730
    -6.7489  -6.7340  -6.2600  -6.2529  -6.1735  -6.1694  -5.2027  -5.2024
    -4.4492  -4.4285  -0.2232  -0.2097   0.3774   0.3805   1.0041   1.0195
     1.4732   1.5773   2.0853   2.1544   2.3541   2.3898   2.6187   2.7135
     2.9283   3.0544   3.1006   3.1860   3.4989   3.5445   3.6543   3.6898
     4.0403   4.2637   6.2290   6.2753   6.5622   6.6509   7.2214   7.2217
     7.4621   7.4664

          k = 1.0162 0.0000-0.2971 ( 36514 PWs)   bands (ev):

   -44.1426 -44.1426 -22.2473 -22.2473 -22.2359 -22.2359 -22.0730 -22.0730
    -6.7397  -6.7397  -6.2741  -6.2741  -6.1553  -6.1553  -5.2009  -5.2009
    -4.4412  -4.4412  -0.2779  -0.2779   0.5609   0.5609   0.9749   0.9749
     1.5082   1.5082   1.9206   1.9206   2.3381   2.3381   2.7272   2.7272
     2.8882   2.8882   3.1710   3.1710   3.6358   3.6358   3.7849   3.7849
     4.3129   4.3129   5.8770   5.8770   6.5109   6.5109   7.2349   7.2349
     7.5650   7.5650

          k = 1.2703 0.0645 0.0000 ( 36468 PWs)   bands (ev):

   -44.1430 -44.1430 -22.2493 -22.2493 -22.2264 -22.2264 -22.0741 -22.0741
    -7.1159  -6.9056  -6.7718  -6.6322  -5.7262  -5.5064  -5.1495  -5.1475
    -4.5218  -4.4566  -0.2061   0.0288   0.2328   0.8802   0.9554   1.2688
     1.5052   1.7160   2.1684   2.1743   2.2157   2.2658   2.4202   2.8751
     2.9889   3.1922   3.3756   3.4544   3.5062   3.5891   3.6098   3.6833
     4.0669   4.4998   6.1336   6.4677   6.5552   6.7876   7.0245   7.1442
     7.3230   7.5698

          k = 1.2703 0.0645 0.1485 ( 36490 PWs)   bands (ev):

   -44.1430 -44.1430 -22.2493 -22.2493 -22.2264 -22.2264 -22.0741 -22.0741
    -7.0943  -6.9556  -6.7343  -6.6454  -5.6895  -5.5323  -5.1553  -5.1535
    -4.5104  -4.4649  -0.1733   0.1362   0.1599   0.8243   0.9045   1.2159
     1.5368   1.6288   2.0056   2.1833   2.2334   2.5907   2.6286   2.9365
     2.9447   3.0886   3.2111   3.3043   3.4826   3.5371   3.7688   3.8370
     4.0542   4.4776   5.9037   6.4973   6.6734   6.8681   6.9925   7.1537
     7.2005   7.5540

          k = 1.2703 0.0645-0.2971 ( 36480 PWs)   bands (ev):

   -44.1430 -44.1430 -22.2493 -22.2493 -22.2264 -22.2264 -22.0741 -22.0741
    -7.0349  -7.0349  -6.6819  -6.6819  -5.6058  -5.6058  -5.1600  -5.1600
    -4.4862  -4.4862  -0.0465  -0.0465   0.4762   0.4762   1.0423   1.0423
     1.5713   1.5713   2.1008   2.1008   2.4783   2.4783   2.8354   2.8354
     3.0145   3.0145   3.1535   3.1535   3.5871   3.5871   3.8878   3.8878
     4.1380   4.1380   6.2862   6.2862   6.5165   6.5165   7.1436   7.1436
     7.4483   7.4483

          k =-0.5081-0.3869 0.0000 ( 36463 PWs)   bands (ev):

   -44.1439 -44.1439 -22.2541 -22.2541 -22.2035 -22.2035 -22.0768 -22.0767
    -7.6716  -7.4710  -6.9095  -6.7813  -5.9059  -5.2446  -5.0151  -4.6514
    -4.5671  -4.4810   0.0570   0.5092   0.6873   0.9889   1.1837   1.5385
     1.6530   1.7641   1.8713   2.0496   2.1692   2.4114   2.5308   3.2894
     3.4757   3.5287   3.5540   3.6067   3.7269   3.7300   3.9772   4.1302
     4.2964   4.9219   5.7845   6.0861   6.2902   6.8072   6.8659   6.8981
     7.3671   7.4706

          k =-0.5081-0.3869 0.1485 ( 36477 PWs)   bands (ev):

   -44.1439 -44.1439 -22.2541 -22.2541 -22.2035 -22.2035 -22.0768 -22.0767
    -7.6480  -7.5086  -6.8833  -6.7952  -5.8410  -5.4225  -4.8771  -4.6192
    -4.6141  -4.4879   0.1146   0.4892   0.7651   0.8483   1.1646   1.3246
     1.6171   1.7146   1.9673   2.0409   2.3847   2.5201   2.8517   3.2254
     3.4491   3.4815   3.5111   3.5689   3.6725   3.7475   3.9415   4.1195
     4.2192   4.5193   6.1874   6.3005   6.3584   6.7460   6.8075   6.9370
     7.1873   7.4797

          k =-0.5081-0.3869-0.2971 ( 36492 PWs)   bands (ev):

   -44.1439 -44.1439 -22.2541 -22.2541 -22.2035 -22.2035 -22.0768 -22.0768
    -7.5848  -7.5848  -6.8336  -6.8336  -5.6636  -5.6636  -4.7265  -4.7265
    -4.5391  -4.5391   0.2882   0.2882   0.9650   0.9650   0.9856   0.9856
     1.6592   1.6592   2.0081   2.0081   2.7375   2.7375   3.0953   3.0953
     3.3660   3.3660   3.5204   3.5204   3.6817   3.6817   3.9350   3.9350
     4.2588   4.2588   6.4016   6.4016   6.6955   6.6955   6.8207   6.8207
     7.2559   7.2559

          k =-0.2541-0.3224 0.0000 ( 36485 PWs)   bands (ev):

   -44.1448 -44.1448 -22.2588 -22.2588 -22.1806 -22.1805 -22.0795 -22.0793
    -8.0372  -7.8294  -7.0564  -6.9014  -6.0900  -5.3691  -4.8279  -4.7440
    -4.6753  -3.9597   0.3685   0.9051   0.9540   1.1282   1.3349   1.5879
     1.5997   1.6295   1.8378   2.4936   2.5685   3.2120   3.4268   3.5581
     3.6124   3.6881   3.7299   3.8771   3.9562   4.1337   4.1817   4.2826
     4.3371   4.6801   6.0640   6.0687   6.3128   6.5230   6.5382   6.8160
     6.9349   7.0690

          k =-0.2541-0.3224 0.1485 ( 36445 PWs)   bands (ev):

   -44.1448 -44.1448 -22.2588 -22.2588 -22.1806 -22.1805 -22.0794 -22.0793
    -8.0125  -7.8677  -7.0246  -6.9177  -6.0213  -5.5520  -4.7858  -4.6953
    -4.5725  -4.0442   0.4341   0.8276   0.9312   1.1658   1.2697   1.3137
     1.6918   1.7545   2.1802   2.4966   2.5586   2.9556   3.4200   3.4988
     3.5560   3.5873   3.6583   3.9059   3.9475   4.1193   4.2750   4.3302
     4.6439   4.8010   5.8836   6.0484   6.1413   6.3643   6.4810   6.7771
     7.1437   7.2251

          k =-0.2541-0.3224-0.2971 ( 36442 PWs)   bands (ev):

   -44.1448 -44.1448 -22.2588 -22.2588 -22.1806 -22.1806 -22.0794 -22.0794
    -7.9465  -7.9465  -6.9638  -6.9638  -5.8259  -5.8259  -4.7390  -4.7390
    -4.2730  -4.2730   0.6132   0.6132   1.0227   1.0227   1.2469   1.2469
     1.8214   1.8214   2.4727   2.4727   2.6515   2.6515   3.2795   3.2795
     3.5592   3.5592   3.8070   3.8070   4.0795   4.0795   4.3095   4.3095
     4.9687   4.9687   5.7386   5.7386   6.2036   6.2036   6.5762   6.5762
     7.3432   7.3432

          k = 0.0000-0.2579 0.0000 ( 36445 PWs)   bands (ev):

   -44.1451 -44.1451 -22.2607 -22.2607 -22.1710 -22.1710 -22.0806 -22.0804
    -8.1641  -7.9519  -7.1210  -6.9494  -6.1467  -5.4176  -4.8284  -4.7486
    -4.7119  -3.7815   0.2864   0.7955   0.9729   1.2190   1.3476   1.6357
     1.9084   2.0399   2.2618   2.8254   2.9276   3.0012   3.2561   3.5094
     3.5715   3.6712   3.8855   3.9588   4.1588   4.2726   4.3450   4.6676
     4.7251   5.2777   5.6978   5.9858   6.0129   6.0568   6.0685   6.7826
     7.0794   7.1079

          k = 0.0000-0.2579 0.1485 ( 36452 PWs)   bands (ev):

   -44.1451 -44.1451 -22.2607 -22.2607 -22.1710 -22.1710 -22.0805 -22.0804
    -8.1389  -7.9910  -7.0855  -6.9670  -6.0790  -5.6038  -4.8125  -4.7401
    -4.5234  -3.8900   0.3642   0.9374   0.9613   1.0238   1.1899   1.8768
     1.9249   2.0172   2.0715   2.8449   2.9162   3.0559   3.3357   3.5159
     3.6692   3.6866   3.9088   3.9373   4.1971   4.2550   4.2905   4.6792
     4.7181   4.8682   5.9053   5.9607   6.0005   6.1990   6.3491   6.6176
     6.8938   7.0087

          k = 0.0000-0.2579-0.2971 ( 36454 PWs)   bands (ev):

   -44.1451 -44.1451 -22.2607 -22.2607 -22.1710 -22.1710 -22.0805 -22.0805
    -8.0715  -8.0715  -7.0178  -7.0178  -5.8833  -5.8833  -4.7761  -4.7761
    -4.1720  -4.1720   0.5999   0.5999   1.0779   1.0779   1.3640   1.3640
     1.9680   1.9680   2.6068   2.6068   2.8845   2.8845   3.4978   3.4978
     3.7800   3.7800   4.0791   4.0791   4.1134   4.1134   4.3709   4.3709
     4.7002   4.7002   5.9495   5.9495   6.2664   6.2664   6.5318   6.5318
     6.7509   6.7509

          k = 1.5243 0.0000 0.0000 ( 36439 PWs)   bands (ev):

   -44.1439 -44.1439 -22.2541 -22.2541 -22.2035 -22.2035 -22.0768 -22.0767
    -7.6692  -7.4706  -6.9099  -6.7821  -5.9091  -5.2451  -5.0176  -4.6534
    -4.5640  -4.4815   0.0527   0.5148   0.6848   0.9849   1.1876   1.6075
     1.6742   1.7365   1.8862   2.0392   2.2066   2.3867   2.5250   3.2527
     3.4875   3.4925   3.5586   3.6003   3.7057   3.7622   3.9095   4.1556
     4.2906   4.9273   5.7808   6.0499   6.3217   6.8300   6.8553   6.9611
     7.3290   7.5149

          k = 1.5243 0.0000 0.1485 ( 36476 PWs)   bands (ev):

   -44.1439 -44.1439 -22.2541 -22.2541 -22.2035 -22.2035 -22.0768 -22.0767
    -7.6458  -7.5077  -6.8841  -6.7962  -5.8436  -5.4232  -4.8804  -4.6172
    -4.6161  -4.4863   0.1116   0.4952   0.7638   0.8412   1.1655   1.3320
     1.7092   1.7180   1.9559   2.0164   2.4413   2.4793   2.8487   3.1954
     3.4075   3.4862   3.5175   3.5609   3.6841   3.7319   3.9234   4.1353
     4.1869   4.5285   6.1620   6.3169   6.3525   6.7174   6.8443   7.0092
     7.1432   7.5007

          k = 1.5243 0.0000-0.2971 ( 36508 PWs)   bands (ev):

   -44.1439 -44.1439 -22.2541 -22.2541 -22.2035 -22.2035 -22.0768 -22.0768
    -7.5831  -7.5831  -6.8349  -6.8349  -5.6650  -5.6650  -4.7295  -4.7295
    -4.5370  -4.5370   0.2885   0.2885   0.9632   0.9632   0.9848   0.9848
     1.7185   1.7185   1.9832   1.9832   2.7653   2.7653   3.0485   3.0485
     3.3672   3.3672   3.5093   3.5093   3.6761   3.6761   3.9370   3.9370
     4.2481   4.2481   6.3888   6.3888   6.6973   6.6973   6.8254   6.8254
     7.2750   7.2750

          k =-0.2541-0.4514 0.0000 ( 36444 PWs)   bands (ev):

   -44.1448 -44.1448 -22.2588 -22.2588 -22.1806 -22.1805 -22.0795 -22.0793
    -8.0334  -7.8287  -7.0535  -6.9017  -6.1021  -5.3726  -4.8413  -4.7389
    -4.6703  -3.9605   0.3808   0.9177   0.9414   1.2519   1.3388   1.6037
     1.6263   1.6993   1.8736   2.4219   2.4972   3.2488   3.4077   3.4683
     3.4943   3.6794   3.7944   3.8791   3.9358   4.0521   4.1008   4.2248
     4.3278   4.7090   6.0857   6.1462   6.3335   6.5486   6.5572   6.8465
     6.8621   7.0344

          k =-0.2541-0.4514 0.1485 ( 36461 PWs)   bands (ev):

   -44.1448 -44.1448 -22.2588 -22.2588 -22.1806 -22.1805 -22.0794 -22.0793
    -8.0090  -7.8662  -7.0230  -6.9181  -6.0314  -5.5560  -4.7968  -4.6917
    -4.5693  -4.0443   0.4463   0.8311   0.9346   1.2373   1.3233   1.3732
     1.7029   1.7818   2.2341   2.4278   2.4826   2.9812   3.3553   3.4049
     3.5268   3.5381   3.7440   3.8918   3.9166   3.9860   4.2473   4.3057
     4.6424   4.8174   5.8835   6.0558   6.1639   6.3781   6.5481   6.7439
     7.1445   7.2123

          k =-0.2541-0.4514-0.2971 ( 36490 PWs)   bands (ev):

   -44.1448 -44.1448 -22.2588 -22.2588 -22.1806 -22.1806 -22.0794 -22.0794
    -7.9438  -7.9438  -6.9640  -6.9640  -5.8325  -5.8325  -4.7426  -4.7426
    -4.2715  -4.2715   0.6233   0.6233   1.0299   1.0299   1.3365   1.3365
     1.8376   1.8376   2.4370   2.4370   2.6539   2.6539   3.2634   3.2634
     3.4420   3.4420   3.8675   3.8675   3.9987   3.9987   4.2786   4.2786
     4.9828   4.9828   5.7214   5.7214   6.1980   6.1980   6.6201   6.6201
     7.3397   7.3397

          k = 0.0000-0.3869 0.0000 ( 36477 PWs)   bands (ev):

   -44.1452 -44.1451 -22.2607 -22.2607 -22.1710 -22.1710 -22.0806 -22.0804
    -8.1593  -7.9510  -7.1150  -6.9495  -6.1654  -5.4239  -4.8477  -4.7365
    -4.7095  -3.7825   0.3080   0.8054   1.1192   1.2815   1.3721   1.7103
     1.9081   2.0388   2.2588   2.8443   2.9347   3.0255   3.1692   3.2659
     3.4950   3.6670   3.8573   3.9661   4.0205   4.0980   4.3455   4.6369
     4.7226   5.2557   5.7451   6.0648   6.0657   6.0763   6.1259   6.7609
     7.0187   7.0792

          k = 0.0000-0.3869 0.1485 ( 36452 PWs)   bands (ev):

   -44.1451 -44.1451 -22.2607 -22.2607 -22.1710 -22.1710 -22.0805 -22.0804
    -8.1344  -7.9891  -7.0815  -6.9671  -6.0951  -5.6108  -4.8262  -4.7347
    -4.5210  -3.8902   0.3853   0.9546   0.9890   1.1721   1.2633   1.8897
     1.9245   2.0163   2.1182   2.8620   2.9250   3.0336   3.2050   3.3352
     3.5061   3.7642   3.9107   3.9318   4.0692   4.1299   4.2440   4.6619
     4.7151   4.8672   5.9573   6.0095   6.0405   6.2144   6.3609   6.5961
     6.8966   6.9430

          k = 0.0000-0.3869-0.2971 ( 36454 PWs)   bands (ev):

   -44.1451 -44.1451 -22.2607 -22.2607 -22.1710 -22.1710 -22.0805 -22.0805
    -8.0681  -8.0681  -7.0168  -7.0168  -5.8942  -5.8942  -4.7803  -4.7803
    -4.1708  -4.1708   0.6227   0.6227   1.1912   1.1912   1.3819   1.3819
     1.9674   1.9674   2.6360   2.6360   2.8974   2.8974   3.2488   3.2488
     3.8318   3.8318   4.0164   4.0164   4.0574   4.0574   4.3259   4.3259
     4.6940   4.6940   5.9710   5.9710   6.2975   6.2975   6.5405   6.5405
     6.7066   6.7066

          k =-2.0325 0.0000 0.0000 ( 36452 PWs)   bands (ev):

   -44.1451 -44.1451 -22.2607 -22.2607 -22.1710 -22.1710 -22.0806 -22.0804
    -8.1573  -7.9506  -7.1128  -6.9492  -6.1733  -5.4265  -4.8549  -4.7285
    -4.7121  -3.7829   0.3141   0.8099   1.2475   1.2502   1.3817   1.7547
     1.9079   2.0383   2.2581   2.8527   2.9374   3.0398   3.0728   3.1475
     3.4629   3.8315   3.8455   3.8820   3.9705   4.0052   4.3457   4.6243
     4.7216   5.2485   5.7644   6.0824   6.0845   6.1063   6.1439   6.7258
     6.9992   7.0791

          k =-2.0325 0.0000 0.1485 ( 36456 PWs)   bands (ev):

   -44.1451 -44.1451 -22.2607 -22.2607 -22.1710 -22.1710 -22.0805 -22.0804
    -8.1326  -7.9883  -7.0801  -6.9670  -6.1019  -5.6137  -4.8315  -4.7328
    -4.5201  -3.8903   0.3910   0.9622   1.0004   1.2605   1.2868   1.8957
     1.9243   2.0159   2.1421   2.8695   2.9285   2.9893   3.0884   3.2950
     3.4727   3.8731   3.8994   3.9488   3.9889   4.0270   4.2391   4.6550
     4.7139   4.8671   5.9803   6.0335   6.0481   6.2209   6.3635   6.5730
     6.8977   6.9237

          k =-2.0325 0.0000-0.2971 ( 36460 PWs)   bands (ev):

   -44.1451 -44.1451 -22.2607 -22.2607 -22.1710 -22.1710 -22.0805 -22.0805
    -8.0666  -8.0666  -7.0164  -7.0164  -5.8986  -5.8986  -4.7821  -4.7821
    -4.1703  -4.1703   0.6290   0.6290   1.2487   1.2487   1.3922   1.3922
     1.9672   1.9672   2.6460   2.6460   2.9029   2.9029   3.1325   3.1325
     3.8970   3.8970   3.9423   3.9423   4.0482   4.0482   4.3099   4.3099
     4.6916   4.6916   5.9752   5.9752   6.3094   6.3094   6.5441   6.5441
     6.6868   6.6868

     the Fermi energy is     5.6063 ev

!    total energy              =   -4240.94172307 Ry

     total all-electron energy =   -150287.635418 Ry
     estimated scf accuracy    <          5.4E-12 Ry
     smearing contrib. (-TS)   =       0.00000277 Ry
     internal energy E=F+TS    =   -4240.94172584 Ry

     The total energy is F=E-TS. E is the sum of the following terms:
     one-electron contribution =    -168.26849421 Ry
     hartree contribution      =     117.59243221 Ry
     xc contribution           =    -201.58853395 Ry
     ewald contribution        =    -221.14178921 Ry
     one-center paw contrib.   =   -3767.53534068 Ry

     convergence has been achieved in  18 iterations

     Forces acting on atoms (cartesian axes, Ry/au):

     atom    1 type  1   force =     0.00000000    0.01430802    0.00000000
     atom    2 type  1   force =     0.00000000   -0.01430802    0.00000000
     atom    3 type  2   force =     0.00000000   -0.00011695    0.00000000
     atom    4 type  2   force =     0.00000000    0.00011695    0.00000000
     atom    5 type  2   force =     0.00000000   -0.00330255   -0.00182713
     atom    6 type  2   force =     0.00000000    0.00330255    0.00182713
     atom    7 type  2   force =     0.00000000   -0.00330255    0.00182713
     atom    8 type  2   force =     0.00000000    0.00330255   -0.00182713
     atom    9 type  2   force =    -0.00000000   -0.02506015   -0.02826012
     atom   10 type  2   force =    -0.00000000    0.02506015    0.02826012
     atom   11 type  2   force =     0.00000000   -0.02506015    0.02826012
     atom   12 type  2   force =     0.00000000    0.02506015   -0.02826012

     Total force =     0.078569     Total SCF correction =     0.000003


     Computing stress (Cartesian axis) and pressure

          total   stress  (Ry/bohr**3)                   (kbar)     P=        6.63
   0.00004831   0.00000000   0.00000000            7.11        0.00        0.00
   0.00000000   0.00002669   0.00000000            0.00        3.93        0.00
   0.00000000   0.00000000   0.00006012            0.00        0.00        8.84

 
     init_run     :     36.17s CPU     37.03s WALL (       1 calls)
     electrons    :   1777.91s CPU   1796.36s WALL (       1 calls)
     forces       :      7.24s CPU      7.49s WALL (       1 calls)
     stress       :     46.06s CPU     46.71s WALL (       1 calls)

     Called by init_run:
     wfcinit      :     31.26s CPU     31.51s WALL (       1 calls)
     potinit      :      1.49s CPU      1.55s WALL (       1 calls)
     hinit0       :      1.73s CPU      1.96s WALL (       1 calls)

     Called by electrons:
     c_bands      :   1444.39s CPU   1452.32s WALL (      19 calls)
     sum_band     :    298.70s CPU    304.82s WALL (      19 calls)
     v_of_rho     :      8.93s CPU      9.55s WALL (      19 calls)
     newd         :     18.46s CPU     22.48s WALL (      19 calls)
     PAW_pot      :      6.92s CPU      6.94s WALL (      19 calls)
     mix_rho      :      1.52s CPU      1.56s WALL (      19 calls)

     Called by c_bands:
     init_us_2    :     14.47s CPU     14.53s WALL (    2583 calls)
     cegterg      :   1362.90s CPU   1370.13s WALL (    1197 calls)

     Called by *egterg:
     cdiaghg      :     28.83s CPU     28.93s WALL (    8147 calls)
     h_psi        :   1177.22s CPU   1184.21s WALL (    8273 calls)
     s_psi        :     53.31s CPU     53.38s WALL (    8273 calls)
     g_psi        :      2.36s CPU      2.38s WALL (    7013 calls)

     Called by h_psi:
     h_psi:calbec :     44.94s CPU     45.06s WALL (    8273 calls)
     vloc_psi     :   1075.03s CPU   1081.74s WALL (    8273 calls)
     add_vuspsi   :     53.02s CPU     53.09s WALL (    8273 calls)

     General routines
     calbec       :     59.07s CPU     59.22s WALL (    9785 calls)
     fft          :      8.15s CPU      8.56s WALL (     271 calls)
     ffts         :      0.21s CPU      0.21s WALL (      38 calls)
     fftw         :   1068.56s CPU   1075.13s WALL (  441478 calls)
     interpolate  :      0.68s CPU      0.68s WALL (      19 calls)
 
     Parallel routines
     fft_scatt_xy :    288.07s CPU    289.83s WALL (  441787 calls)
     fft_scatt_yz :    197.39s CPU    199.11s WALL (  441787 calls)
 
     PWSCF        :  31m 7.63s CPU  31m33.80s WALL

 
   This run was terminated on:  15:17:53  19Nov2021            

=------------------------------------------------------------------------------=
   JOB DONE.
=------------------------------------------------------------------------------=
