
     Program PWSCF v.6.7MaX starts on 19Nov2021 at 14:46:16 

     This program is part of the open-source Quantum ESPRESSO suite
     for quantum simulation of materials; please cite
         "P. Giannozzi et al., J. Phys.:Condens. Matter 21 395502 (2009);
         "P. Giannozzi et al., J. Phys.:Condens. Matter 29 465901 (2017);
          URL http://www.quantum-espresso.org", 
     in publications or presentations arising from this work. More details at
     http://www.quantum-espresso.org/quote

     Parallel version (MPI), running on    10 processors

     MPI processes distributed on     1 nodes
     R & G space division:  proc/nbgrp/npool/nimage =      10
     Waiting for input...
     Reading input from standard input

     Current dimensions of program PWSCF are:
     Max number of different atomic species (ntypx) = 10
     Max number of k-points (npk) =  40000
     Max angular momentum in pseudopotentials (lmaxx) =  3
     file Zr.pbe-spn-kjpaw_psl.1.0.0.UPF: wavefunction(s)  4S 4P renormalized
     file Te.pbe-n-kjpaw_psl.1.0.0.UPF: wavefunction(s)  5S 5P renormalized

     Subspace diagonalization in iterative solution of the eigenvalue problem:
     a serial algorithm will be used

     Message from routine setup:
     using ibrav=0 with symmetry is DISCOURAGED, use correct ibrav instead
 
     Parallelization info
     --------------------
     sticks:   dense  smooth     PW     G-vecs:    dense   smooth      PW
     Min         734     293     87               115340    29174    4753
     Max         735     295     88               115345    29176    4760
     Sum        7345    2937    873              1153415   291749   47557
 


     bravais-lattice index     =            0
     lattice parameter (alat)  =      15.5510  a.u.
     unit-cell volume          =    3018.5011 (a.u.)^3
     number of atoms/cell      =           12
     number of atomic types    =            2
     number of electrons       =        84.00
     number of Kohn-Sham states=           50
     kinetic-energy cutoff     =      80.0000  Ry
     charge density cutoff     =     800.0000  Ry
     scf convergence threshold =      1.0E-10
     mixing beta               =       0.7000
     number of iterations used =            8  plain     mixing
     Exchange-correlation= SLA  PW   PBX  PBC
                           (   1   4   3   4   0   0   0)

     celldm(1)=  15.551040  celldm(2)=   0.000000  celldm(3)=   0.000000
     celldm(4)=   0.000000  celldm(5)=   0.000000  celldm(6)=   0.000000

     crystal axes: (cart. coord. in units of alat)
               a(1) = (   0.246007  -0.969268   0.000000 )  
               a(2) = (   0.246007   0.969268   0.000000 )  
               a(3) = (   0.000000   0.000000   1.683031 )  

     reciprocal axes: (cart. coord. in units 2 pi/alat)
               b(1) = (  2.032465 -0.515853  0.000000 )  
               b(2) = (  2.032465  0.515853  0.000000 )  
               b(3) = (  0.000000  0.000000  0.594166 )  


     PseudoPot. # 1 for Zr read from file:
     pseudo/Zr.pbe-spn-kjpaw_psl.1.0.0.UPF
     MD5 check sum: 02112c41713a0468aff2bb39ef194e36
     Pseudo is Projector augmented-wave + core cor, Zval = 12.0
     Generated using &quot;atomic&quot; code by A. Dal Corso  v.6.2.2
     Shape of augmentation charge: PSQ
     Using radial grid of 1225 points,  6 beta functions with: 
                l(1) =   0
                l(2) =   0
                l(3) =   1
                l(4) =   1
                l(5) =   2
                l(6) =   2
     Q(r) pseudized with 0 coefficients 


     PseudoPot. # 2 for Te read from file:
     pseudo/Te.pbe-n-kjpaw_psl.1.0.0.UPF
     MD5 check sum: 66247bff2bd9dbf220fbb0bf5ab56e9d
     Pseudo is Projector augmented-wave + core cor, Zval =  6.0
     Generated using &quot;atomic&quot; code by A. Dal Corso  v.6.3
     Shape of augmentation charge: PSQ
     Using radial grid of 1245 points,  6 beta functions with: 
                l(1) =   0
                l(2) =   0
                l(3) =   1
                l(4) =   1
                l(5) =   2
                l(6) =   2
     Q(r) pseudized with 0 coefficients 


     atomic species   valence    mass     pseudopotential
        Zr            12.00    91.22000     Zr( 1.00)
        Te             6.00   127.60000     Te( 1.00)

      8 Sym. Ops., with inversion, found ( 4 have fractional translation)



   Cartesian axes

     site n.     atom                  positions (alat units)
         1           Zr  tau(   1) = (   0.0000000   0.6008337   0.4207578  )
         2           Zr  tau(   2) = (   0.2460067   0.3684344   1.2622733  )
         3           Te  tau(   3) = (   0.2460067   0.3341525   0.4207578  )
         4           Te  tau(   4) = (   0.0000000   0.6351157   1.2622733  )
         5           Te  tau(   5) = (   0.2460067   0.8119988   0.2535466  )
         6           Te  tau(   6) = (   0.0000000   0.1572694   1.4294844  )
         7           Te  tau(   7) = (   0.2460067   0.8119988   0.5879689  )
         8           Te  tau(   8) = (   0.0000000   0.1572694   1.0950622  )
         9           Te  tau(   9) = (   0.0000000   0.4232547   0.7388612  )
        10           Te  tau(  10) = (   0.2460067   0.5460134   0.9441699  )
        11           Te  tau(  11) = (   0.0000000   0.4232547   0.1026544  )
        12           Te  tau(  12) = (   0.2460067   0.5460134   1.5803767  )

     number of k points=    63  Methfessel-Paxton smearing, width (Ry)=  0.0030
                       cart. coord. in units 2pi/alat
        k(    1) = (   0.0000000   0.0000000   0.0000000), wk =   0.0078125
        k(    2) = (   0.0000000   0.0000000   0.1485415), wk =   0.0156250
        k(    3) = (   0.0000000   0.0000000  -0.2970830), wk =   0.0078125
        k(    4) = (   0.2540581   0.0644816   0.0000000), wk =   0.0312500
        k(    5) = (   0.2540581   0.0644816   0.1485415), wk =   0.0625000
        k(    6) = (   0.2540581   0.0644816  -0.2970830), wk =   0.0312500
        k(    7) = (   0.5081162   0.1289633   0.0000000), wk =   0.0312500
        k(    8) = (   0.5081162   0.1289633   0.1485415), wk =   0.0625000
        k(    9) = (   0.5081162   0.1289633  -0.2970830), wk =   0.0312500
        k(   10) = (   0.7621743   0.1934449   0.0000000), wk =   0.0312500
        k(   11) = (   0.7621743   0.1934449   0.1485415), wk =   0.0625000
        k(   12) = (   0.7621743   0.1934449  -0.2970830), wk =   0.0312500
        k(   13) = (  -1.0162324  -0.2579266   0.0000000), wk =   0.0156250
        k(   14) = (  -1.0162324  -0.2579266   0.1485415), wk =   0.0312500
        k(   15) = (  -1.0162324  -0.2579266  -0.2970830), wk =   0.0156250
        k(   16) = (   0.5081162   0.0000000   0.0000000), wk =   0.0156250
        k(   17) = (   0.5081162   0.0000000   0.1485415), wk =   0.0312500
        k(   18) = (   0.5081162   0.0000000  -0.2970830), wk =   0.0156250
        k(   19) = (   0.7621743   0.0644816   0.0000000), wk =   0.0312500
        k(   20) = (   0.7621743   0.0644816   0.1485415), wk =   0.0625000
        k(   21) = (   0.7621743   0.0644816  -0.2970830), wk =   0.0312500
        k(   22) = (   1.0162324   0.1289633   0.0000000), wk =   0.0312500
        k(   23) = (   1.0162324   0.1289633   0.1485415), wk =   0.0625000
        k(   24) = (   1.0162324   0.1289633  -0.2970830), wk =   0.0312500
        k(   25) = (  -0.7621743  -0.3224082   0.0000000), wk =   0.0312500
        k(   26) = (  -0.7621743  -0.3224082   0.1485415), wk =   0.0625000
        k(   27) = (  -0.7621743  -0.3224082  -0.2970830), wk =   0.0312500
        k(   28) = (  -0.5081162  -0.2579266   0.0000000), wk =   0.0312500
        k(   29) = (  -0.5081162  -0.2579266   0.1485415), wk =   0.0625000
        k(   30) = (  -0.5081162  -0.2579266  -0.2970830), wk =   0.0312500
        k(   31) = (  -0.2540581  -0.1934449   0.0000000), wk =   0.0312500
        k(   32) = (  -0.2540581  -0.1934449   0.1485415), wk =   0.0625000
        k(   33) = (  -0.2540581  -0.1934449  -0.2970830), wk =   0.0312500
        k(   34) = (   0.0000000  -0.1289633   0.0000000), wk =   0.0156250
        k(   35) = (   0.0000000  -0.1289633   0.1485415), wk =   0.0312500
        k(   36) = (   0.0000000  -0.1289633  -0.2970830), wk =   0.0156250
        k(   37) = (   1.0162324   0.0000000   0.0000000), wk =   0.0156250
        k(   38) = (   1.0162324   0.0000000   0.1485415), wk =   0.0312500
        k(   39) = (   1.0162324   0.0000000  -0.2970830), wk =   0.0156250
        k(   40) = (   1.2702905   0.0644816   0.0000000), wk =   0.0312500
        k(   41) = (   1.2702905   0.0644816   0.1485415), wk =   0.0625000
        k(   42) = (   1.2702905   0.0644816  -0.2970830), wk =   0.0312500
        k(   43) = (  -0.5081162  -0.3868899   0.0000000), wk =   0.0312500
        k(   44) = (  -0.5081162  -0.3868899   0.1485415), wk =   0.0625000
        k(   45) = (  -0.5081162  -0.3868899  -0.2970830), wk =   0.0312500
        k(   46) = (  -0.2540581  -0.3224082   0.0000000), wk =   0.0312500
        k(   47) = (  -0.2540581  -0.3224082   0.1485415), wk =   0.0625000
        k(   48) = (  -0.2540581  -0.3224082  -0.2970830), wk =   0.0312500
        k(   49) = (   0.0000000  -0.2579266   0.0000000), wk =   0.0156250
        k(   50) = (   0.0000000  -0.2579266   0.1485415), wk =   0.0312500
        k(   51) = (   0.0000000  -0.2579266  -0.2970830), wk =   0.0156250
        k(   52) = (   1.5243485   0.0000000   0.0000000), wk =   0.0156250
        k(   53) = (   1.5243485   0.0000000   0.1485415), wk =   0.0312500
        k(   54) = (   1.5243485   0.0000000  -0.2970830), wk =   0.0156250
        k(   55) = (  -0.2540581  -0.4513715   0.0000000), wk =   0.0312500
        k(   56) = (  -0.2540581  -0.4513715   0.1485415), wk =   0.0625000
        k(   57) = (  -0.2540581  -0.4513715  -0.2970830), wk =   0.0312500
        k(   58) = (   0.0000000  -0.3868899   0.0000000), wk =   0.0156250
        k(   59) = (   0.0000000  -0.3868899   0.1485415), wk =   0.0312500
        k(   60) = (   0.0000000  -0.3868899  -0.2970830), wk =   0.0156250
        k(   61) = (  -2.0324647   0.0000000   0.0000000), wk =   0.0078125
        k(   62) = (  -2.0324647   0.0000000   0.1485415), wk =   0.0156250
        k(   63) = (  -2.0324647   0.0000000  -0.2970830), wk =   0.0078125

     Dense  grid:  1153415 G-vectors     FFT dimensions: ( 144, 144, 240)

     Smooth grid:   291749 G-vectors     FFT dimensions: (  90,  90, 150)

     Estimated max dynamical RAM per process >     657.19 MB

     Estimated total dynamical RAM >       6.42 GB

     Initial potential from superposition of free atoms

     starting charge   83.99353, renormalised to   84.00000
     Starting wfcs are   66 randomized atomic wfcs
     Checking if some PAW data can be deallocated... 

     total cpu time spent up to now is       43.5 secs

     Self-consistent Calculation

     iteration #  1     ecut=    80.00 Ry     beta= 0.70
     Davidson diagonalization with overlap
     ethr =  1.00E-02,  avg # of iterations =  2.2

     Threshold (ethr) on eigenvalues was too large:
     Diagonalizing with lowered threshold

     Davidson diagonalization with overlap
     ethr =  4.60E-04,  avg # of iterations =  3.9

     total cpu time spent up to now is      206.5 secs

     total energy              =   -4240.70800595 Ry
     estimated scf accuracy    <       0.45010861 Ry

     iteration #  2     ecut=    80.00 Ry     beta= 0.70
     Davidson diagonalization with overlap
     ethr =  5.36E-04,  avg # of iterations =  8.0

     total cpu time spent up to now is      322.9 secs

     total energy              =   -4240.60697897 Ry
     estimated scf accuracy    <       2.04952756 Ry

     iteration #  3     ecut=    80.00 Ry     beta= 0.70
     Davidson diagonalization with overlap
     ethr =  5.36E-04,  avg # of iterations =  5.5

     total cpu time spent up to now is      419.5 secs

     total energy              =   -4240.92586085 Ry
     estimated scf accuracy    <       0.00779768 Ry

     iteration #  4     ecut=    80.00 Ry     beta= 0.70
     Davidson diagonalization with overlap
     c_bands:  1 eigenvalues not converged
     c_bands:  2 eigenvalues not converged
     c_bands:  2 eigenvalues not converged
     c_bands:  2 eigenvalues not converged
     c_bands:  1 eigenvalues not converged
     c_bands:  4 eigenvalues not converged
     c_bands:  1 eigenvalues not converged
     c_bands:  3 eigenvalues not converged
     c_bands:  2 eigenvalues not converged
     c_bands:  1 eigenvalues not converged
     c_bands:  1 eigenvalues not converged
     c_bands:  1 eigenvalues not converged
     c_bands:  1 eigenvalues not converged
     c_bands:  4 eigenvalues not converged
     c_bands:  1 eigenvalues not converged
     c_bands:  2 eigenvalues not converged
     c_bands:  2 eigenvalues not converged
     c_bands:  1 eigenvalues not converged
     ethr =  9.28E-06,  avg # of iterations = 17.7

     total cpu time spent up to now is      601.5 secs

     total energy              =   -4240.93500609 Ry
     estimated scf accuracy    <       0.03684738 Ry

     iteration #  5     ecut=    80.00 Ry     beta= 0.70
     Davidson diagonalization with overlap
     ethr =  9.28E-06,  avg # of iterations =  6.9

     total cpu time spent up to now is      696.8 secs

     total energy              =   -4240.93675224 Ry
     estimated scf accuracy    <       0.00618550 Ry

     iteration #  6     ecut=    80.00 Ry     beta= 0.70
     Davidson diagonalization with overlap
     ethr =  7.36E-06,  avg # of iterations =  3.3

     total cpu time spent up to now is      775.3 secs

     total energy              =   -4240.93732243 Ry
     estimated scf accuracy    <       0.00083234 Ry

     iteration #  7     ecut=    80.00 Ry     beta= 0.70
     Davidson diagonalization with overlap
     ethr =  9.91E-07,  avg # of iterations =  9.5

     total cpu time spent up to now is      892.9 secs

     total energy              =   -4240.93772525 Ry
     estimated scf accuracy    <       0.00088922 Ry

     iteration #  8     ecut=    80.00 Ry     beta= 0.70
     Davidson diagonalization with overlap
     ethr =  9.91E-07,  avg # of iterations =  2.1

     total cpu time spent up to now is      962.9 secs

     total energy              =   -4240.93775627 Ry
     estimated scf accuracy    <       0.00012147 Ry

     iteration #  9     ecut=    80.00 Ry     beta= 0.70
     Davidson diagonalization with overlap
     ethr =  1.45E-07,  avg # of iterations =  6.2

     total cpu time spent up to now is     1056.4 secs

     total energy              =   -4240.93779744 Ry
     estimated scf accuracy    <       0.00001924 Ry

     iteration # 10     ecut=    80.00 Ry     beta= 0.70
     Davidson diagonalization with overlap
     ethr =  2.29E-08,  avg # of iterations =  3.0

     total cpu time spent up to now is     1131.0 secs

     total energy              =   -4240.93779987 Ry
     estimated scf accuracy    <       0.00000156 Ry

     iteration # 11     ecut=    80.00 Ry     beta= 0.70
     Davidson diagonalization with overlap
     ethr =  1.86E-09,  avg # of iterations =  8.2

     total cpu time spent up to now is     1240.1 secs

     total energy              =   -4240.93780115 Ry
     estimated scf accuracy    <       0.00000091 Ry

     iteration # 12     ecut=    80.00 Ry     beta= 0.70
     Davidson diagonalization with overlap
     ethr =  1.08E-09,  avg # of iterations =  2.1

     total cpu time spent up to now is     1312.4 secs

     total energy              =   -4240.93780118 Ry
     estimated scf accuracy    <       0.00000014 Ry

     iteration # 13     ecut=    80.00 Ry     beta= 0.70
     Davidson diagonalization with overlap
     ethr =  1.70E-10,  avg # of iterations =  6.2

     total cpu time spent up to now is     1408.1 secs

     total energy              =   -4240.93780125 Ry
     estimated scf accuracy    <       0.00000003 Ry

     iteration # 14     ecut=    80.00 Ry     beta= 0.70
     Davidson diagonalization with overlap
     ethr =  3.13E-11,  avg # of iterations =  2.5

     total cpu time spent up to now is     1479.8 secs

     total energy              =   -4240.93780125 Ry
     estimated scf accuracy    <       0.00000001 Ry

     iteration # 15     ecut=    80.00 Ry     beta= 0.70
     Davidson diagonalization with overlap
     ethr =  1.63E-11,  avg # of iterations =  4.7

     total cpu time spent up to now is     1560.6 secs

     End of self-consistent calculation

          k = 0.0000 0.0000 0.0000 ( 36359 PWs)   bands (ev):

   -44.1475 -44.1475 -22.2617 -22.2617 -22.1723 -22.1723 -22.0837 -22.0835
    -8.2228  -8.0204  -7.1313  -6.9581  -6.0961  -5.4053  -4.7898  -4.7407
    -4.7117  -3.7707   0.2242   0.7919   0.8307   1.1600   1.2878   1.5343
     1.8454   1.9633   2.2641   2.8083   2.9160   2.9812   3.2559   3.3781
     3.8476   3.9409   4.0904   4.1012   4.3403   4.3572   4.4643   4.6971
     4.7370   5.3039   5.6285   5.8705   5.9075   5.9079   6.0579   6.7239
     7.0954   7.2852

          k = 0.0000 0.0000 0.1485 ( 36415 PWs)   bands (ev):

   -44.1475 -44.1475 -22.2617 -22.2617 -22.1723 -22.1723 -22.0837 -22.0836
    -8.1985  -8.0571  -7.0960  -6.9759  -6.0330  -5.5824  -4.7804  -4.7475
    -4.5071  -3.8791   0.3023   0.8495   0.9303   0.9310   1.1170   1.8559
     1.8604   1.9433   2.0042   2.8277   2.9032   3.0284   3.3834   3.4699
     3.7990   3.9892   4.0588   4.1162   4.2797   4.3794   4.4689   4.6997
     4.7297   4.8603   5.8398   5.8651   5.8707   6.2010   6.2936   6.5823
     6.9039   7.1139

          k = 0.0000 0.0000-0.2971 ( 36410 PWs)   bands (ev):

   -44.1475 -44.1475 -22.2617 -22.2617 -22.1723 -22.1723 -22.0836 -22.0836
    -8.1337  -8.1337  -7.0276  -7.0276  -5.8488  -5.8488  -4.7639  -4.7639
    -4.1597  -4.1597   0.5336   0.5336   0.9777   0.9777   1.3466   1.3466
     1.8994   1.8994   2.5522   2.5522   2.8687   2.8687   3.6089   3.6089
     3.9306   3.9306   4.1205   4.1205   4.2991   4.2991   4.4462   4.4462
     4.7130   4.7130   5.8618   5.8618   6.2168   6.2168   6.5364   6.5364
     6.7690   6.7690

          k = 0.2541 0.0645 0.0000 ( 36396 PWs)   bands (ev):

   -44.1472 -44.1471 -22.2598 -22.2598 -22.1818 -22.1818 -22.0826 -22.0825
    -8.0972  -7.8971  -7.0667  -6.9087  -6.0373  -5.3570  -4.7681  -4.7411
    -4.6946  -3.9527   0.3039   0.8987   0.9147   0.9547   1.2601   1.5045
     1.5132   1.5322   1.7728   2.5943   2.6256   3.2006   3.2922   3.6991
     3.7811   3.7915   3.8846   3.9076   4.0782   4.2679   4.3400   4.4264
     4.4584   4.6002   5.9332   5.9814   6.1602   6.4801   6.4839   6.6923
     7.0478   7.2338

          k = 0.2541 0.0645 0.1485 ( 36423 PWs)   bands (ev):

   -44.1472 -44.1472 -22.2598 -22.2598 -22.1818 -22.1818 -22.0826 -22.0825
    -8.0732  -7.9335  -7.0343  -6.9250  -5.9740  -5.5311  -4.7441  -4.7035
    -4.5671  -4.0378   0.3708   0.7925   0.9079   0.9945   1.1745   1.2185
     1.6237   1.7145   2.0773   2.5955   2.6075   2.9464   3.4164   3.4346
     3.5191   3.8514   3.9690   4.0318   4.0655   4.2186   4.4068   4.4419
     4.6790   4.7333   5.8862   6.0118   6.1197   6.2264   6.2932   6.8092
     7.2110   7.2424

          k = 0.2541 0.0645-0.2971 ( 36436 PWs)   bands (ev):

   -44.1472 -44.1472 -22.2598 -22.2598 -22.1818 -22.1818 -22.0825 -22.0825
    -8.0092  -8.0092  -6.9719  -6.9719  -5.7915  -5.7915  -4.7237  -4.7237
    -4.2670  -4.2670   0.5581   0.5581   0.9679   0.9679   1.1116   1.1116
     1.7615   1.7615   2.4871   2.4871   2.6487   2.6487   3.2757   3.2757
     3.6818   3.6818   4.0096   4.0096   4.1714   4.1714   4.4346   4.4346
     4.9201   4.9201   5.7931   5.7931   6.1411   6.1411   6.4733   6.4733
     7.3589   7.3589

          k = 0.5081 0.1290 0.0000 ( 36499 PWs)   bands (ev):

   -44.1463 -44.1463 -22.2551 -22.2551 -22.2048 -22.2048 -22.0800 -22.0799
    -7.7300  -7.5351  -6.9124  -6.7862  -5.8693  -5.2376  -4.9964  -4.6292
    -4.5822  -4.4847   0.0299   0.4551   0.7001   0.9842   1.1626   1.3060
     1.6333   1.7143   1.7802   2.0796   2.1438   2.4016   2.5668   3.4297
     3.4810   3.5570   3.5679   3.6757   3.7659   3.8533   3.9969   4.2266
     4.3108   4.8677   5.8404   6.1652   6.2780   6.6097   6.6459   7.0526
     7.4341   7.5517

          k = 0.5081 0.1290 0.1485 ( 36476 PWs)   bands (ev):

   -44.1463 -44.1463 -22.2551 -22.2551 -22.2048 -22.2048 -22.0799 -22.0799
    -7.7068  -7.5711  -6.8861  -6.7992  -5.8090  -5.4095  -4.8574  -4.6188
    -4.6038  -4.4995   0.0838   0.4246   0.7800   0.8569   1.1657   1.2652
     1.4011   1.5814   2.0035   2.0908   2.3170   2.4936   2.8647   3.3678
     3.4546   3.4971   3.5333   3.6866   3.7590   3.7895   3.8773   4.2566
     4.2996   4.4657   6.2425   6.2892   6.4326   6.6093   6.7033   6.9240
     7.2886   7.5268

          k = 0.5081 0.1290-0.2971 ( 36466 PWs)   bands (ev):

   -44.1463 -44.1463 -22.2551 -22.2551 -22.2048 -22.2048 -22.0799 -22.0799
    -7.6450  -7.6450  -6.8365  -6.8365  -5.6414  -5.6414  -4.7079  -4.7079
    -4.5489  -4.5489   0.2444   0.2444   0.9614   0.9614   0.9875   0.9875
     1.4627   1.4627   2.0549   2.0549   2.6559   2.6559   3.1856   3.1856
     3.3890   3.3890   3.5828   3.5828   3.7574   3.7574   3.9102   3.9102
     4.3385   4.3385   6.4771   6.4771   6.5716   6.5716   6.8870   6.8870
     7.2416   7.2416

          k = 0.7622 0.1934 0.0000 ( 36521 PWs)   bands (ev):

   -44.1454 -44.1454 -22.2503 -22.2503 -22.2276 -22.2276 -22.0773 -22.0773
    -7.1673  -6.9621  -6.7674  -6.6381  -5.7275  -5.5199  -5.1503  -5.1396
    -4.5020  -4.4640  -0.2160   0.0235   0.2183   0.9195   0.9257   1.2989
     1.4887   1.5975   2.0130   2.1897   2.2276   2.2473   2.4532   2.8110
     2.9877   3.2417   3.3571   3.4628   3.5143   3.6685   3.7358   3.7484
     3.8628   4.5849   6.1614   6.4560   6.5552   6.9387   6.9635   7.0204
     7.3887   7.6345

          k = 0.7622 0.1934 0.1485 ( 36503 PWs)   bands (ev):

   -44.1454 -44.1454 -22.2503 -22.2503 -22.2276 -22.2276 -22.0773 -22.0773
    -7.1455  -7.0075  -6.7345  -6.6501  -5.6935  -5.5453  -5.1532  -5.1476
    -4.4946  -4.4681  -0.1816   0.1196   0.1513   0.7875   0.9496   1.2479
     1.4980   1.5992   2.0007   2.0317   2.1465   2.5762   2.7037   2.8970
     2.9472   3.0318   3.2729   3.3545   3.5105   3.6041   3.7489   3.9301
     3.9865   4.4640   5.9950   6.4402   6.7460   6.8911   7.0369   7.0769
     7.1828   7.6626

          k = 0.7622 0.1934-0.2971 ( 36522 PWs)   bands (ev):

   -44.1454 -44.1454 -22.2503 -22.2503 -22.2276 -22.2276 -22.0773 -22.0773
    -7.0858  -7.0858  -6.6845  -6.6845  -5.6154  -5.6154  -5.1556  -5.1556
    -4.4797  -4.4797  -0.0565  -0.0565   0.4525   0.4525   1.0788   1.0788
     1.5559   1.5559   1.9956   1.9956   2.4373   2.4373   2.8460   2.8460
     2.9612   2.9612   3.2695   3.2695   3.5952   3.5952   3.9600   3.9600
     4.0689   4.0689   6.3699   6.3699   6.5281   6.5281   7.0651   7.0651
     7.5609   7.5609

          k =-1.0162-0.2579 0.0000 ( 36506 PWs)   bands (ev):

   -44.1450 -44.1450 -22.2483 -22.2483 -22.2371 -22.2371 -22.0762 -22.0762
    -6.7604  -6.7394  -6.2643  -6.2525  -6.2463  -6.2419  -5.1891  -5.1886
    -4.4440  -4.4143  -0.1402  -0.1213   0.1654   0.1869   1.0114   1.0190
     1.4667   1.6593   2.2115   2.3736   2.3975   2.4245   2.7940   2.8334
     2.8359   2.8734   3.1791   3.2351   3.3003   3.3555   3.4350   3.6190
     3.9587   4.2190   6.6741   6.7438   6.7907   6.8083   7.1176   7.2133
     7.2146   7.2844

          k =-1.0162-0.2579 0.1485 ( 36506 PWs)   bands (ev):

   -44.1450 -44.1450 -22.2483 -22.2483 -22.2371 -22.2371 -22.0762 -22.0762
    -6.7555  -6.7404  -6.2981  -6.2908  -6.2119  -6.2076  -5.1875  -5.1871
    -4.4419  -4.4209  -0.2328  -0.2270   0.3542   0.3623   1.0068   1.0165
     1.4593   1.5903   2.0718   2.2037   2.3410   2.3928   2.6456   2.6645
     2.9256   3.0295   3.1033   3.2101   3.5196   3.5522   3.5836   3.7033
     4.0922   4.2416   6.2670   6.2888   6.5800   6.6573   7.2253   7.2328
     7.4418   7.5123

          k =-1.0162-0.2579-0.2971 ( 36528 PWs)   bands (ev):

   -44.1450 -44.1450 -22.2483 -22.2483 -22.2371 -22.2371 -22.0762 -22.0762
    -6.7460  -6.7460  -6.3125  -6.3125  -6.1934  -6.1934  -5.1858  -5.1858
    -4.4336  -4.4336  -0.2909  -0.2909   0.5330   0.5330   0.9781   0.9781
     1.5038   1.5038   1.9381   1.9381   2.3468   2.3468   2.7583   2.7583
     2.8179   2.8179   3.1974   3.1974   3.6299   3.6299   3.7807   3.7807
     4.3117   4.3117   5.9112   5.9112   6.5222   6.5222   7.2422   7.2422
     7.5792   7.5792

          k = 0.5081 0.0000 0.0000 ( 36503 PWs)   bands (ev):

   -44.1463 -44.1463 -22.2551 -22.2551 -22.2048 -22.2048 -22.0800 -22.0799
    -7.7320  -7.5355  -6.9127  -6.7850  -5.8663  -5.2370  -4.9940  -4.6225
    -4.5901  -4.4842   0.0344   0.4486   0.6999   1.0004   1.1587   1.2609
     1.6276   1.7039   1.7670   2.0869   2.1395   2.3891   2.5698   3.4220
     3.5056   3.5708   3.5921   3.6504   3.7782   3.9039   3.9774   4.2639
     4.3137   4.8585   5.8467   6.1408   6.3108   6.5731   6.5936   7.0905
     7.4398   7.5764

          k = 0.5081 0.0000 0.1485 ( 36453 PWs)   bands (ev):

   -44.1463 -44.1463 -22.2551 -22.2551 -22.2048 -22.2048 -22.0799 -22.0799
    -7.7087  -7.5719  -6.8859  -6.7980  -5.8065  -5.4087  -4.8540  -4.6194
    -4.6028  -4.5015   0.0871   0.4183   0.7830   0.8621   1.1772   1.2458
     1.3646   1.5590   2.0028   2.1052   2.3062   2.4791   2.8654   3.3840
     3.4723   3.4834   3.5452   3.7066   3.7436   3.8483   3.8504   4.2981
     4.3116   4.4487   6.2295   6.2999   6.4515   6.5654   6.6651   6.9579
     7.3022   7.5430

          k = 0.5081 0.0000-0.2971 ( 36452 PWs)   bands (ev):

   -44.1463 -44.1463 -22.2551 -22.2551 -22.2048 -22.2048 -22.0799 -22.0799
    -7.6464  -7.6464  -6.8355  -6.8355  -5.6400  -5.6400  -4.7045  -4.7045
    -4.5514  -4.5514   0.2441   0.2441   0.9610   0.9610   0.9914   0.9914
     1.4285   1.4285   2.0592   2.0592   2.6454   2.6454   3.1890   3.1890
     3.3976   3.3976   3.5865   3.5865   3.7886   3.7886   3.8982   3.8982
     4.3561   4.3561   6.4915   6.4915   6.5359   6.5359   6.9052   6.9052
     7.2428   7.2428

          k = 0.7622 0.0645 0.0000 ( 36505 PWs)   bands (ev):

   -44.1454 -44.1454 -22.2503 -22.2503 -22.2276 -22.2276 -22.0773 -22.0773
    -7.1725  -6.9629  -6.7647  -6.6346  -5.7280  -5.5178  -5.1489  -5.1402
    -4.4909  -4.4759  -0.2074   0.0213   0.2273   0.9098   0.9560   1.3121
     1.4580   1.5596   1.9756   2.1835   2.2571   2.2637   2.3927   2.7868
     2.9783   3.2857   3.3667   3.4683   3.5810   3.6849   3.7005   3.7405
     3.8388   4.6073   6.1588   6.4271   6.5791   6.9366   6.9802   6.9943
     7.3963   7.6733

          k = 0.7622 0.0645 0.1485 ( 36509 PWs)   bands (ev):

   -44.1454 -44.1454 -22.2503 -22.2503 -22.2276 -22.2276 -22.0773 -22.0773
    -7.1504  -7.0097  -6.7309  -6.6462  -5.6940  -5.5441  -5.1520  -5.1476
    -4.4868  -4.4764  -0.1732   0.1300   0.1458   0.7772   0.9769   1.2609
     1.4698   1.5956   1.9731   1.9923   2.1238   2.5775   2.7048   2.8865
     2.9350   3.0366   3.3125   3.3584   3.5555   3.5942   3.7200   3.9651
     3.9759   4.4567   6.0193   6.4165   6.7637   6.8917   7.0108   7.1169
     7.1550   7.6887

          k = 0.7622 0.0645-0.2971 ( 36472 PWs)   bands (ev):

   -44.1454 -44.1454 -22.2503 -22.2503 -22.2276 -22.2276 -22.0773 -22.0773
    -7.0896  -7.0896  -6.6802  -6.6802  -5.6155  -5.6155  -5.1547  -5.1547
    -4.4799  -4.4799  -0.0483  -0.0483   0.4457   0.4457   1.0981   1.0981
     1.5510   1.5510   1.9422   1.9422   2.4342   2.4342   2.8507   2.8507
     2.9393   2.9393   3.3191   3.3191   3.5920   3.5920   3.9723   3.9723
     4.0518   4.0518   6.3975   6.3975   6.5268   6.5268   7.0354   7.0354
     7.5880   7.5881

          k = 1.0162 0.1290 0.0000 ( 36514 PWs)   bands (ev):

   -44.1450 -44.1450 -22.2483 -22.2483 -22.2371 -22.2371 -22.0762 -22.0762
    -6.7604  -6.7394  -6.2641  -6.2527  -6.2463  -6.2419  -5.1891  -5.1886
    -4.4440  -4.4143  -0.1459  -0.1155   0.1628   0.1896   1.0031   1.0281
     1.4737   1.6490   2.2075   2.3799   2.4026   2.4170   2.7676   2.8391
     2.8664   2.8782   3.1998   3.2000   3.2918   3.3411   3.4762   3.6050
     3.9415   4.2359   6.6679   6.7533   6.7734   6.8255   7.1428   7.2133
     7.2167   7.2629

          k = 1.0162 0.1290 0.1485 ( 36524 PWs)   bands (ev):

   -44.1450 -44.1450 -22.2483 -22.2483 -22.2371 -22.2371 -22.0762 -22.0762
    -6.7555  -6.7404  -6.2980  -6.2908  -6.2119  -6.2076  -5.1875  -5.1871
    -4.4419  -4.4209  -0.2352  -0.2249   0.3554   0.3616   1.0050   1.0184
     1.4657   1.5837   2.0801   2.1869   2.3442   2.3928   2.6244   2.6922
     2.9221   3.0412   3.1038   3.2015   3.5107   3.5323   3.6223   3.6952
     4.0710   4.2610   6.2626   6.2986   6.5763   6.6596   7.2276   7.2327
     7.4524   7.5028

          k = 1.0162 0.1290-0.2971 ( 36516 PWs)   bands (ev):

   -44.1450 -44.1450 -22.2483 -22.2483 -22.2371 -22.2371 -22.0762 -22.0762
    -6.7460  -6.7460  -6.3125  -6.3125  -6.1934  -6.1934  -5.1858  -5.1858
    -4.4336  -4.4336  -0.2910  -0.2910   0.5333   0.5333   0.9779   0.9779
     1.5050   1.5050   1.9387   1.9387   2.3409   2.3409   2.7372   2.7372
     2.8507   2.8507   3.1885   3.1885   3.6315   3.6315   3.7801   3.7801
     4.3123   4.3123   5.9141   5.9141   6.5213   6.5213   7.2430   7.2430
     7.5802   7.5802

          k =-0.7622-0.3224 0.0000 ( 36511 PWs)   bands (ev):

   -44.1454 -44.1454 -22.2503 -22.2503 -22.2276 -22.2276 -22.0773 -22.0773
    -7.1597  -6.9608  -6.7718  -6.6428  -5.7268  -5.5228  -5.1518  -5.1391
    -4.5106  -4.4545  -0.2280   0.0269   0.2051   0.8920   0.9332   1.2828
     1.5032   1.6660   2.0900   2.1909   2.2122   2.2423   2.4666   2.8482
     2.9971   3.2102   3.3439   3.4584   3.4917   3.6238   3.6871   3.7098
     3.9861   4.5455   6.1650   6.4850   6.5472   6.8579   7.0039   7.0882
     7.3663   7.5804

          k =-0.7622-0.3224 0.1485 ( 36492 PWs)   bands (ev):

   -44.1454 -44.1454 -22.2503 -22.2503 -22.2276 -22.2276 -22.0773 -22.0773
    -7.1385  -7.0045  -6.7401  -6.6554  -5.6928  -5.5470  -5.1547  -5.1478
    -4.5006  -4.4614  -0.1933   0.1091   0.1549   0.8016   0.9182   1.2300
     1.5252   1.6123   2.0114   2.1185   2.1852   2.5752   2.6781   2.9195
     2.9515   3.0526   3.2365   3.3290   3.4751   3.5834   3.7677   3.8790
     4.0258   4.4724   5.9631   6.4776   6.7136   6.8875   7.0273   7.1036
     7.2073   7.6061

          k =-0.7622-0.3224-0.2971 ( 36508 PWs)   bands (ev):

   -44.1454 -44.1454 -22.2503 -22.2503 -22.2276 -22.2276 -22.0773 -22.0773
    -7.0802  -7.0802  -6.6906  -6.6906  -5.6152  -5.6152  -5.1568  -5.1568
    -4.4795  -4.4795  -0.0678  -0.0678   0.4615   0.4615   1.0559   1.0559
     1.5638   1.5638   2.0612   2.0612   2.4538   2.4538   2.8408   2.8408
     2.9918   2.9918   3.2008   3.2008   3.5924   3.5924   3.9203   3.9203
     4.1143   4.1143   6.3354   6.3354   6.5277   6.5277   7.1122   7.1122
     7.5089   7.5090

          k =-0.5081-0.2579 0.0000 ( 36480 PWs)   bands (ev):

   -44.1463 -44.1463 -22.2551 -22.2551 -22.2048 -22.2048 -22.0800 -22.0799
    -7.7250  -7.5341  -6.9121  -6.7886  -5.8767  -5.2390  -5.0023  -4.6390
    -4.5695  -4.4859   0.0193   0.4701   0.6992   0.9571   1.1719   1.4129
     1.6431   1.7486   1.8128   2.0671   2.1436   2.4279   2.5577   3.3893
     3.4517   3.5448   3.5521   3.7010   3.7099   3.7674   4.0447   4.1379
     4.3006   4.8875   5.8277   6.1863   6.2387   6.7037   6.7710   6.9642
     7.4139   7.4970

          k =-0.5081-0.2579 0.1485 ( 36485 PWs)   bands (ev):

   -44.1463 -44.1463 -22.2551 -22.2551 -22.2048 -22.2048 -22.0799 -22.0799
    -7.7022  -7.5692  -6.8871  -6.8018  -5.8151  -5.4114  -4.8655  -4.6170
    -4.6063  -4.4950   0.0761   0.4394   0.7737   0.8431   1.1557   1.2938
     1.4975   1.6441   1.9937   2.0657   2.3395   2.5234   2.8621   3.3037
     3.4488   3.5003   3.5175   3.6523   3.6772   3.7749   3.9290   4.1727
     4.2654   4.4949   6.2532   6.2774   6.3949   6.7050   6.8064   6.8515
     7.2480   7.4930

          k =-0.5081-0.2579-0.2971 ( 36478 PWs)   bands (ev):

   -44.1463 -44.1463 -22.2551 -22.2551 -22.2048 -22.2048 -22.0799 -22.0799
    -7.6414  -7.6414  -6.8389  -6.8389  -5.6450  -5.6450  -4.7158  -4.7158
    -4.5432  -4.5432   0.2451   0.2451   0.9614   0.9614   0.9805   0.9805
     1.5527   1.5527   2.0389   2.0389   2.6872   2.6872   3.1586   3.1586
     3.3715   3.3715   3.5609   3.5609   3.7063   3.7063   3.9354   3.9354
     4.2983   4.2983   6.4442   6.4442   6.6493   6.6493   6.8464   6.8464
     7.2457   7.2458

          k =-0.2541-0.1934 0.0000 ( 36410 PWs)   bands (ev):

   -44.1472 -44.1471 -22.2598 -22.2598 -22.1818 -22.1818 -22.0826 -22.0824
    -8.0938  -7.8964  -7.0630  -6.9098  -6.0487  -5.3610  -4.7888  -4.7381
    -4.6801  -3.9535   0.3268   0.8881   0.9249   1.0198   1.2864   1.5286
     1.5303   1.5621   1.7942   2.5639   2.6159   3.1942   3.3483   3.6787
     3.7286   3.7509   3.8770   3.8906   3.9176   4.1981   4.3132   4.3648
     4.3851   4.6437   5.9913   6.0250   6.2404   6.4715   6.4984   6.7538
     7.0170   7.1567

          k =-0.2541-0.1934 0.1485 ( 36427 PWs)   bands (ev):

   -44.1472 -44.1472 -22.2598 -22.2598 -22.1818 -22.1818 -22.0826 -22.0825
    -8.0700  -7.9322  -7.0319  -6.9258  -5.9839  -5.5355  -4.7599  -4.6957
    -4.5633  -4.0379   0.3937   0.7940   0.9153   1.0628   1.1916   1.2552
     1.6283   1.7263   2.1112   2.5640   2.6030   2.9437   3.4292   3.4746
     3.5321   3.7711   3.8543   3.9088   4.0217   4.1869   4.3677   4.3874
     4.6418   4.7739   5.8902   6.0295   6.1274   6.3008   6.3631   6.8078
     7.1717   7.2345

          k =-0.2541-0.1934-0.2971 ( 36422 PWs)   bands (ev):

   -44.1472 -44.1472 -22.2598 -22.2598 -22.1818 -22.1818 -22.0825 -22.0825
    -8.0068  -8.0068  -6.9717  -6.9717  -5.7983  -5.7983  -4.7271  -4.7271
    -4.2657  -4.2657   0.5771   0.5771   0.9816   0.9816   1.1572   1.1572
     1.7695   1.7695   2.4880   2.4880   2.6499   2.6499   3.2819   3.2819
     3.6991   3.6991   3.8471   3.8471   4.1465   4.1465   4.3814   4.3814
     4.9364   4.9364   5.7680   5.7680   6.1897   6.1897   6.5099   6.5099
     7.3487   7.3487

          k = 0.0000-0.1290 0.0000 ( 36417 PWs)   bands (ev):

   -44.1475 -44.1475 -22.2617 -22.2617 -22.1723 -22.1723 -22.0837 -22.0835
    -8.2210  -8.0200  -7.1286  -6.9585  -6.1034  -5.4082  -4.7994  -4.7406
    -4.7041  -3.7711   0.2395   0.7950   0.8713   1.1714   1.2993   1.5665
     1.8452   1.9628   2.2614   2.8153   2.9194   2.9826   3.2542   3.4169
     3.8192   3.9295   3.9568   4.0129   4.2868   4.3575   4.4180   4.6840
     4.7358   5.2820   5.6474   5.9214   5.9325   5.9561   6.0659   6.7410
     7.0954   7.2281

          k = 0.0000-0.1290 0.1485 ( 36419 PWs)   bands (ev):

   -44.1475 -44.1475 -22.2617 -22.2617 -22.1723 -22.1723 -22.0837 -22.0836
    -8.1968  -8.0564  -7.0941  -6.9761  -6.0395  -5.5856  -4.7892  -4.7421
    -4.5060  -3.8792   0.3181   0.8938   0.9335   0.9384   1.1381   1.8602
     1.8603   1.9429   2.0219   2.8341   2.9072   3.0333   3.3665   3.5090
     3.8003   3.9322   3.9784   4.0052   4.2757   4.3250   4.4248   4.6917
     4.7282   4.8542   5.8587   5.8940   5.9201   6.2073   6.3039   6.5952
     6.9051   7.0771

          k = 0.0000-0.1290-0.2971 ( 36464 PWs)   bands (ev):

   -44.1475 -44.1475 -22.2617 -22.2617 -22.1723 -22.1723 -22.0836 -22.0836
    -8.1324  -8.1324  -7.0270  -7.0270  -5.8534  -5.8534  -4.7655  -4.7655
    -4.1593  -4.1593   0.5516   0.5516   1.0032   1.0032   1.3515   1.3515
     1.8992   1.8992   2.5648   2.5648   2.8739   2.8739   3.6156   3.6156
     3.8670   3.8670   4.1118   4.1118   4.2189   4.2189   4.4275   4.4275
     4.7100   4.7100   5.8955   5.8955   6.2302   6.2302   6.5399   6.5399
     6.7578   6.7578

          k = 1.0162 0.0000 0.0000 ( 36499 PWs)   bands (ev):

   -44.1450 -44.1450 -22.2483 -22.2483 -22.2371 -22.2371 -22.0762 -22.0762
    -6.7605  -6.7394  -6.2640  -6.2528  -6.2463  -6.2418  -5.1891  -5.1886
    -4.4440  -4.4143  -0.1499  -0.1114   0.1606   0.1919   0.9988   1.0332
     1.4817   1.6377   2.2038   2.3914   2.4044   2.4075   2.7557   2.8503
     2.8515   2.9095   3.1739   3.2279   3.2778   3.3193   3.5250   3.5784
     3.9263   4.2510   6.6629   6.7619   6.7637   6.8352   7.1896   7.2137
     7.2183   7.2198

          k = 1.0162 0.0000 0.1485 ( 36485 PWs)   bands (ev):

   -44.1450 -44.1450 -22.2483 -22.2483 -22.2371 -22.2371 -22.0762 -22.0762
    -6.7555  -6.7404  -6.2980  -6.2909  -6.2119  -6.2077  -5.1875  -5.1871
    -4.4419  -4.4209  -0.2369  -0.2235   0.3571   0.3605   1.0037   1.0198
     1.4730   1.5761   2.0911   2.1680   2.3492   2.3903   2.6161   2.7058
     2.9223   3.0496   3.1074   3.1909   3.4961   3.5326   3.6543   3.6794
     4.0534   4.2769   6.2603   6.3064   6.5729   6.6617   7.2309   7.2317
     7.4747   7.4819

          k = 1.0162 0.0000-0.2971 ( 36514 PWs)   bands (ev):

   -44.1450 -44.1450 -22.2483 -22.2483 -22.2371 -22.2371 -22.0762 -22.0762
    -6.7460  -6.7460  -6.3125  -6.3125  -6.1935  -6.1935  -5.1858  -5.1858
    -4.4336  -4.4336  -0.2911  -0.2911   0.5336   0.5336   0.9777   0.9777
     1.5062   1.5062   1.9394   1.9394   2.3351   2.3351   2.7245   2.7245
     2.8757   2.8757   3.1788   3.1788   3.6332   3.6332   3.7794   3.7794
     4.3129   4.3129   5.9170   5.9170   6.5205   6.5205   7.2438   7.2438
     7.5811   7.5811

          k = 1.2703 0.0645 0.0000 ( 36468 PWs)   bands (ev):

   -44.1454 -44.1454 -22.2503 -22.2503 -22.2276 -22.2276 -22.0773 -22.0773
    -7.1542  -6.9599  -6.7754  -6.6458  -5.7264  -5.5249  -5.1528  -5.1389
    -4.5151  -4.4493  -0.2363   0.0296   0.1956   0.8724   0.9428   1.2726
     1.5047   1.7168   2.1765   2.1851   2.2152   2.2464   2.4178   2.8780
     2.9990   3.1939   3.3754   3.4429   3.5070   3.5829   3.6158   3.6800
     4.0826   4.5069   6.1676   6.4892   6.5685   6.7990   7.0342   7.1539
     7.3329   7.5621

          k = 1.2703 0.0645 0.1485 ( 36490 PWs)   bands (ev):

   -44.1454 -44.1454 -22.2503 -22.2503 -22.2276 -22.2276 -22.0773 -22.0773
    -7.1333  -7.0023  -6.7444  -6.6590  -5.6923  -5.5482  -5.1556  -5.1481
    -4.5037  -4.4578  -0.2014   0.1026   0.1564   0.8114   0.8995   1.2184
     1.5356   1.6277   2.0185   2.1745   2.2301   2.5833   2.6294   2.9416
     2.9501   3.0840   3.2174   3.2961   3.4844   3.5353   3.7707   3.8383
     4.0699   4.4762   5.9425   6.5088   6.6839   6.8839   7.0071   7.1658
     7.2104   7.5546

          k = 1.2703 0.0645-0.2971 ( 36480 PWs)   bands (ev):

   -44.1454 -44.1454 -22.2503 -22.2503 -22.2276 -22.2276 -22.0773 -22.0773
    -7.0762  -7.0762  -6.6951  -6.6951  -5.6151  -5.6151  -5.1576  -5.1576
    -4.4794  -4.4794  -0.0756  -0.0756   0.4674   0.4674   1.0421   1.0421
     1.5699   1.5699   2.0985   2.0985   2.4784   2.4784   2.8386   2.8386
     3.0109   3.0109   3.1529   3.1529   3.5858   3.5858   3.8875   3.8875
     4.1508   4.1508   6.3137   6.3137   6.5265   6.5265   7.1503   7.1503
     7.4595   7.4596

          k =-0.5081-0.3869 0.0000 ( 36463 PWs)   bands (ev):

   -44.1463 -44.1463 -22.2551 -22.2551 -22.2048 -22.2048 -22.0800 -22.0799
    -7.7200  -7.5331  -6.9125  -6.7904  -5.8841  -5.2404  -5.0081  -4.6451
    -4.5604  -4.4871   0.0089   0.4845   0.6959   0.9394   1.1812   1.5390
     1.6537   1.7708   1.8467   2.0460   2.1669   2.4278   2.5454   3.2890
     3.4826   3.5351   3.5615   3.5921   3.7269   3.7414   3.9950   4.1360
     4.2878   4.9044   5.8173   6.1061   6.3048   6.8075   6.8779   6.9048
     7.3683   7.4641

          k =-0.5081-0.3869 0.1485 ( 36477 PWs)   bands (ev):

   -44.1463 -44.1463 -22.2551 -22.2551 -22.2048 -22.2048 -22.0799 -22.0799
    -7.6976  -7.5672  -6.8885  -6.8040  -5.8211  -5.4132  -4.8733  -4.6147
    -4.6093  -4.4908   0.0686   0.4537   0.7698   0.8265   1.1545   1.3149
     1.6192   1.7175   1.9631   2.0381   2.3851   2.5226   2.8572   3.2230
     3.4379   3.4896   3.5141   3.5744   3.6820   3.7482   3.9614   4.1219
     4.2221   4.5194   6.2029   6.3135   6.3719   6.7574   6.8085   6.9458
     7.1884   7.4778

          k =-0.5081-0.3869-0.2971 ( 36492 PWs)   bands (ev):

   -44.1463 -44.1463 -22.2551 -22.2551 -22.2048 -22.2048 -22.0799 -22.0799
    -7.6379  -7.6379  -6.8414  -6.8414  -5.6485  -5.6485  -4.7232  -4.7232
    -4.5380  -4.5380   0.2456   0.2456   0.9605   0.9605   0.9756   0.9756
     1.6633   1.6633   2.0062   2.0062   2.7335   2.7335   3.0888   3.0888
     3.3644   3.3644   3.5308   3.5308   3.6819   3.6819   3.9522   3.9522
     4.2655   4.2655   6.4129   6.4129   6.6975   6.6975   6.8251   6.8251
     7.2690   7.2692

          k =-0.2541-0.3224 0.0000 ( 36485 PWs)   bands (ev):

   -44.1472 -44.1472 -22.2598 -22.2598 -22.1818 -22.1818 -22.0826 -22.0824
    -8.0890  -7.8955  -7.0584  -6.9104  -6.0651  -5.3664  -4.8119  -4.7308
    -4.6687  -3.9546   0.3519   0.8841   0.9284   1.1320   1.3311   1.5385
     1.5670   1.6345   1.8272   2.4979   2.5727   3.2067   3.4386   3.5649
     3.6166   3.6787   3.7407   3.8903   3.9545   4.1337   4.1824   4.2869
     4.3470   4.6922   6.0689   6.0835   6.3066   6.4846   6.5260   6.8284
     6.9384   7.0764

          k =-0.2541-0.3224 0.1485 ( 36445 PWs)   bands (ev):

   -44.1472 -44.1472 -22.2598 -22.2598 -22.1818 -22.1818 -22.0826 -22.0825
    -8.0656  -7.9303  -7.0291  -6.9264  -5.9981  -5.5416  -4.7773  -4.6888
    -4.5585  -4.0381   0.4188   0.7964   0.9229   1.1607   1.2453   1.3139
     1.6391   1.7502   2.1647   2.5009   2.5632   2.9576   3.4237   3.4955
     3.5692   3.5972   3.6603   3.9070   3.9559   4.1261   4.2866   4.3406
     4.6305   4.8054   5.8921   6.0458   6.1440   6.3604   6.4654   6.7826
     7.1459   7.2192

          k =-0.2541-0.3224-0.2971 ( 36442 PWs)   bands (ev):

   -44.1472 -44.1472 -22.2598 -22.2598 -22.1818 -22.1818 -22.0825 -22.0825
    -8.0033  -8.0033  -6.9714  -6.9714  -5.8078  -5.8078  -4.7319  -4.7319
    -4.2638  -4.2638   0.5976   0.5976   0.9952   0.9952   1.2489   1.2489
     1.7855   1.7855   2.4758   2.4758   2.6488   2.6488   3.2850   3.2850
     3.5710   3.5710   3.8093   3.8093   4.0864   4.0864   4.3202   4.3202
     4.9574   4.9574   5.7414   5.7414   6.2102   6.2102   6.5714   6.5714
     7.3390   7.3390

          k = 0.0000-0.2579 0.0000 ( 36445 PWs)   bands (ev):

   -44.1475 -44.1475 -22.2617 -22.2617 -22.1723 -22.1723 -22.0837 -22.0835
    -8.2167  -8.0192  -7.1223  -6.9589  -6.1214  -5.4150  -4.8203  -4.7328
    -4.6956  -3.7720   0.2703   0.8033   0.9795   1.2241   1.3257   1.6359
     1.8447   1.9617   2.2559   2.8328   2.9276   2.9937   3.2417   3.5241
     3.5884   3.6780   3.9017   3.9616   4.1592   4.2894   4.3581   4.6526
     4.7329   5.2488   5.6934   5.9978   6.0052   6.0416   6.0853   6.7710
     7.0954   7.1000

          k = 0.0000-0.2579 0.1485 ( 36452 PWs)   bands (ev):

   -44.1475 -44.1475 -22.2617 -22.2617 -22.1723 -22.1723 -22.0837 -22.0836
    -8.1928  -8.0547  -7.0896  -6.9762  -6.0553  -5.5931  -4.8053  -4.7340
    -4.5038  -3.8795   0.3495   0.9416   0.9527   1.0264   1.1954   1.8597
     1.8713   1.9420   2.0653   2.8503   2.9167   3.0430   3.3336   3.5331
     3.6744   3.6943   3.9098   3.9521   4.2003   4.2650   4.3044   4.6732
     4.7249   4.8492   5.9068   5.9539   5.9939   6.2227   6.3231   6.6128
     6.9080   6.9891

          k = 0.0000-0.2579-0.2971 ( 36454 PWs)   bands (ev):

   -44.1475 -44.1475 -22.2617 -22.2617 -22.1723 -22.1723 -22.0836 -22.0836
    -8.1293  -8.1293  -7.0256  -7.0256  -5.8645  -5.8645  -4.7695  -4.7695
    -4.1583  -4.1583   0.5868   0.5868   1.0835   1.0835   1.3652   1.3652
     1.8985   1.8985   2.5958   2.5958   2.8867   2.8867   3.5142   3.5142
     3.7807   3.7807   4.0903   4.0903   4.1087   4.1087   4.3727   4.3727
     4.7031   4.7031   5.9458   5.9458   6.2639   6.2639   6.5486   6.5486
     6.7201   6.7201

          k = 1.5243 0.0000 0.0000 ( 36439 PWs)   bands (ev):

   -44.1463 -44.1463 -22.2551 -22.2551 -22.2048 -22.2048 -22.0800 -22.0799
    -7.7179  -7.5327  -6.9129  -6.7909  -5.8873  -5.2409  -5.0106  -4.6471
    -4.5571  -4.4876   0.0047   0.4904   0.6937   0.9339   1.1851   1.6080
     1.6739   1.7452   1.8613   2.0353   2.2026   2.4042   2.5393   3.2537
     3.4960   3.4999   3.5655   3.5833   3.7058   3.7682   3.9316   4.1626
     4.2821   4.9103   5.8135   6.0705   6.3363   6.8420   6.8550   6.9688
     7.3319   7.5089

          k = 1.5243 0.0000 0.1485 ( 36476 PWs)   bands (ev):

   -44.1463 -44.1463 -22.2551 -22.2551 -22.2048 -22.2048 -22.0799 -22.0799
    -7.6956  -7.5664  -6.8893  -6.8048  -5.8237  -5.4139  -4.8765  -4.6129
    -4.6114  -4.4891   0.0655   0.4596   0.7694   0.8183   1.1552   1.3226
     1.7157   1.7180   1.9494   2.0134   2.4556   2.4685   2.8531   3.1952
     3.4002   3.4922   3.5210   3.5629   3.6911   3.7327   3.9454   4.1359
     4.1927   4.5292   6.1772   6.3302   6.3665   6.7298   6.8440   7.0186
     7.1448   7.4986

          k = 1.5243 0.0000-0.2971 ( 36508 PWs)   bands (ev):

   -44.1463 -44.1463 -22.2551 -22.2551 -22.2048 -22.2048 -22.0799 -22.0799
    -7.6364  -7.6364  -6.8425  -6.8425  -5.6499  -5.6499  -4.7262  -4.7262
    -4.5360  -4.5360   0.2458   0.2458   0.9600   0.9600   0.9738   0.9738
     1.7230   1.7230   1.9801   1.9801   2.7625   2.7625   3.0408   3.0408
     3.3654   3.3654   3.5200   3.5200   3.6757   3.6757   3.9547   3.9547
     4.2558   4.2558   6.4002   6.4002   6.7000   6.7000   6.8292   6.8292
     7.2884   7.2885

          k =-0.2541-0.4514 0.0000 ( 36444 PWs)   bands (ev):

   -44.1472 -44.1472 -22.2598 -22.2598 -22.1818 -22.1818 -22.0826 -22.0824
    -8.0856  -7.8948  -7.0557  -6.9101  -6.0770  -5.3702  -4.8259  -4.7248
    -4.6639  -3.9554   0.3643   0.8850   0.9275   1.2544   1.3326   1.5492
     1.5932   1.7124   1.8625   2.4272   2.5018   3.2497   3.4142   3.4672
     3.5037   3.6682   3.8071   3.8928   3.9486   4.0384   4.0999   4.2300
     4.3359   4.7231   6.0921   6.1616   6.3225   6.5143   6.5468   6.8514
     6.8748   7.0399

          k =-0.2541-0.4514 0.1485 ( 36461 PWs)   bands (ev):

   -44.1472 -44.1472 -22.2598 -22.2598 -22.1818 -22.1818 -22.0826 -22.0825
    -8.0624  -7.9290  -7.0274  -6.9264  -6.0082  -5.5459  -4.7880  -4.6851
    -4.5556  -4.0381   0.4315   0.7987   0.9260   1.2155   1.3158   1.3685
     1.6519   1.7787   2.2199   2.4330   2.4876   2.9864   3.3588   3.4089
     3.5244   3.5465   3.7471   3.8976   3.9248   3.9948   4.2555   4.3169
     4.6263   4.8254   5.8932   6.0489   6.1705   6.3778   6.5325   6.7453
     7.1488   7.2066

          k =-0.2541-0.4514-0.2971 ( 36490 PWs)   bands (ev):

   -44.1472 -44.1472 -22.2598 -22.2598 -22.1818 -22.1818 -22.0825 -22.0825
    -8.0009  -8.0009  -6.9712  -6.9712  -5.8145  -5.8145  -4.7354  -4.7354
    -4.2625  -4.2625   0.6080   0.6080   1.0016   1.0016   1.3360   1.3360
     1.8035   1.8035   2.4429   2.4429   2.6509   2.6509   3.2668   3.2668
     3.4518   3.4518   3.8726   3.8726   4.0050   4.0050   4.2889   4.2889
     4.9716   4.9716   5.7256   5.7256   6.2069   6.2069   6.6122   6.6122
     7.3364   7.3364

          k = 0.0000-0.3869 0.0000 ( 36477 PWs)   bands (ev):

   -44.1475 -44.1475 -22.2617 -22.2617 -22.1723 -22.1723 -22.0837 -22.0835
    -8.2123  -8.0183  -7.1167  -6.9583  -6.1398  -5.4217  -4.8385  -4.7190
    -4.6958  -3.7729   0.2916   0.8130   1.1251   1.2869   1.3501   1.7109
     1.8442   1.9607   2.2519   2.8517   2.9353   3.0163   3.1713   3.2794
     3.4844   3.6815   3.8735   3.9720   4.0218   4.1161   4.3587   4.6214
     4.7302   5.2274   5.7395   6.0591   6.0782   6.0988   6.1049   6.7627
     6.9966   7.0953

          k = 0.0000-0.3869 0.1485 ( 36452 PWs)   bands (ev):

   -44.1475 -44.1475 -22.2617 -22.2617 -22.1723 -22.1723 -22.0837 -22.0835
    -8.1887  -8.0530  -7.0857  -6.9757  -6.0713  -5.6005  -4.8187  -4.7283
    -4.5018  -3.8797   0.3707   0.9584   0.9793   1.1747   1.2683   1.8592
     1.8837   1.9411   2.1127   2.8675   2.9260   3.0294   3.2146   3.3363
     3.4994   3.7746   3.9252   3.9355   4.0737   4.1438   4.2533   4.6559
     4.7216   4.8482   5.9597   6.0034   6.0355   6.2384   6.3346   6.5988
     6.9109   6.9144

          k = 0.0000-0.3869-0.2971 ( 36454 PWs)   bands (ev):

   -44.1475 -44.1475 -22.2617 -22.2617 -22.1723 -22.1723 -22.0836 -22.0836
    -8.1262  -8.1262  -7.0241  -7.0241  -5.8756  -5.8756  -4.7735  -4.7735
    -4.1572  -4.1572   0.6104   0.6104   1.1944   1.1944   1.3832   1.3832
     1.8978   1.8978   2.6272   2.6272   2.9000   2.9000   3.2604   3.2604
     3.8336   3.8336   4.0187   4.0187   4.0682   4.0682   4.3224   4.3224
     4.6967   4.6967   5.9704   5.9704   6.2968   6.2968   6.5575   6.5575
     6.6721   6.6721

          k =-2.0325 0.0000 0.0000 ( 36452 PWs)   bands (ev):

   -44.1475 -44.1475 -22.2617 -22.2617 -22.1723 -22.1723 -22.0837 -22.0835
    -8.2105  -8.0179  -7.1146  -6.9577  -6.1476  -5.4244  -4.8454  -4.7059
    -4.7039  -3.7733   0.2978   0.8173   1.2540   1.2546   1.3597   1.7555
     1.8440   1.9602   2.2508   2.8600   2.9382   3.0297   3.0821   3.1615
     3.4438   3.8477   3.8617   3.8873   3.9773   4.0188   4.3589   4.6086
     4.7291   5.2203   5.7584   6.0762   6.1132   6.1167   6.1205   6.7328
     6.9713   7.0952

          k =-2.0325 0.0000 0.1485 ( 36456 PWs)   bands (ev):

   -44.1475 -44.1475 -22.2617 -22.2617 -22.1723 -22.1723 -22.0837 -22.0835
    -8.1870  -8.0523  -7.0842  -6.9752  -6.0780  -5.6035  -4.8238  -4.7264
    -4.5010  -3.8798   0.3767   0.9662   0.9900   1.2648   1.2891   1.8589
     1.8894   1.9407   2.1372   2.8751   2.9297   2.9936   3.0997   3.2870
     3.4625   3.8859   3.9139   3.9512   3.9995   4.0361   4.2481   4.6491
     4.7203   4.8480   5.9820   6.0284   6.0439   6.2451   6.3374   6.5781
     6.8918   6.9121

          k =-2.0325 0.0000-0.2971 ( 36460 PWs)   bands (ev):

   -44.1475 -44.1475 -22.2617 -22.2617 -22.1723 -22.1723 -22.0836 -22.0836
    -8.1249  -8.1249  -7.0236  -7.0236  -5.8801  -5.8801  -4.7752  -4.7752
    -4.1567  -4.1567   0.6172   0.6172   1.2501   1.2501   1.3941   1.3941
     1.8976   1.8976   2.6395   2.6395   2.9056   2.9056   3.1413   3.1413
     3.8933   3.8933   3.9529   3.9529   4.0588   4.0588   4.3043   4.3043
     4.6942   4.6942   5.9759   5.9759   6.3098   6.3098   6.5612   6.5612
     6.6504   6.6504

     the Fermi energy is     5.3274 ev

!    total energy              =   -4240.93780125 Ry

     total all-electron energy =   -150287.631496 Ry
     estimated scf accuracy    <          1.0E-11 Ry
     smearing contrib. (-TS)   =       0.00000331 Ry
     internal energy E=F+TS    =   -4240.93780456 Ry

     The total energy is F=E-TS. E is the sum of the following terms:
     one-electron contribution =    -168.45255014 Ry
     hartree contribution      =     117.68083626 Ry
     xc contribution           =    -201.60242085 Ry
     ewald contribution        =    -221.02567824 Ry
     one-center paw contrib.   =   -3767.53799158 Ry

     convergence has been achieved in  15 iterations

     Forces acting on atoms (cartesian axes, Ry/au):

     atom    1 type  1   force =     0.00000000    0.01626144    0.00000000
     atom    2 type  1   force =     0.00000000   -0.01626144    0.00000000
     atom    3 type  2   force =     0.00000000   -0.00015262    0.00000000
     atom    4 type  2   force =     0.00000000    0.00015262    0.00000000
     atom    5 type  2   force =    -0.00000000   -0.00376276   -0.00220341
     atom    6 type  2   force =    -0.00000000    0.00376276    0.00220341
     atom    7 type  2   force =     0.00000000   -0.00376276    0.00220341
     atom    8 type  2   force =     0.00000000    0.00376276   -0.00220341
     atom    9 type  2   force =     0.00000000   -0.02904680   -0.03314043
     atom   10 type  2   force =     0.00000000    0.02904680    0.03314043
     atom   11 type  2   force =     0.00000000   -0.02904680    0.03314043
     atom   12 type  2   force =     0.00000000    0.02904680   -0.03314043

     Total force =     0.091504     Total SCF correction =     0.000004


     Computing stress (Cartesian axis) and pressure

          total   stress  (Ry/bohr**3)                   (kbar)     P=        7.81
   0.00005879  -0.00000000   0.00000000            8.65       -0.00        0.00
  -0.00000000   0.00003029   0.00000000           -0.00        4.46        0.00
   0.00000000   0.00000000   0.00007019            0.00        0.00       10.32

 
     init_run     :     35.93s CPU     37.10s WALL (       1 calls)
     electrons    :   1501.84s CPU   1517.12s WALL (       1 calls)
     forces       :      7.80s CPU      8.12s WALL (       1 calls)
     stress       :     53.62s CPU     54.31s WALL (       1 calls)

     Called by init_run:
     wfcinit      :     31.05s CPU     31.31s WALL (       1 calls)
     potinit      :      1.46s CPU      1.52s WALL (       1 calls)
     hinit0       :      1.71s CPU      2.29s WALL (       1 calls)

     Called by electrons:
     c_bands      :   1203.58s CPU   1209.94s WALL (      16 calls)
     sum_band     :    268.98s CPU    274.19s WALL (      16 calls)
     v_of_rho     :      7.65s CPU      8.19s WALL (      16 calls)
     newd         :     15.81s CPU     19.20s WALL (      16 calls)
     PAW_pot      :      5.63s CPU      5.64s WALL (      16 calls)
     mix_rho      :      1.36s CPU      1.39s WALL (      16 calls)

     Called by c_bands:
     init_us_2    :     12.18s CPU     12.24s WALL (    2205 calls)
     cegterg      :   1135.64s CPU   1141.41s WALL (    1008 calls)

     Called by *egterg:
     cdiaghg      :     23.93s CPU     24.05s WALL (    6742 calls)
     h_psi        :    985.83s CPU    991.39s WALL (    6868 calls)
     s_psi        :     42.30s CPU     42.36s WALL (    6868 calls)
     g_psi        :      1.84s CPU      1.86s WALL (    5797 calls)

     Called by h_psi:
     h_psi:calbec :     37.17s CPU     37.25s WALL (    6868 calls)
     vloc_psi     :    903.47s CPU    908.84s WALL (    6868 calls)
     add_vuspsi   :     41.88s CPU     41.94s WALL (    6868 calls)

     General routines
     calbec       :     52.13s CPU     52.23s WALL (    8191 calls)
     fft          :      7.14s CPU      7.89s WALL (     232 calls)
     ffts         :      0.17s CPU      0.17s WALL (      32 calls)
     fftw         :    935.66s CPU    940.89s WALL (  361118 calls)
     interpolate  :      0.56s CPU      0.56s WALL (      16 calls)
 
     Parallel routines
     fft_scatt_xy :    213.20s CPU    214.52s WALL (  361382 calls)
     fft_scatt_yz :    289.01s CPU    290.64s WALL (  361382 calls)
 
     PWSCF        :  26m39.65s CPU  27m 3.06s WALL

 
   This run was terminated on:  15:13:19  19Nov2021            

=------------------------------------------------------------------------------=
   JOB DONE.
=------------------------------------------------------------------------------=
