
     Program PWSCF v.6.7MaX starts on 19Nov2021 at 14:46:17 

     This program is part of the open-source Quantum ESPRESSO suite
     for quantum simulation of materials; please cite
         "P. Giannozzi et al., J. Phys.:Condens. Matter 21 395502 (2009);
         "P. Giannozzi et al., J. Phys.:Condens. Matter 29 465901 (2017);
          URL http://www.quantum-espresso.org", 
     in publications or presentations arising from this work. More details at
     http://www.quantum-espresso.org/quote

     Parallel version (MPI), running on    10 processors

     MPI processes distributed on     1 nodes
     R & G space division:  proc/nbgrp/npool/nimage =      10
     Waiting for input...
     Reading input from standard input

     Current dimensions of program PWSCF are:
     Max number of different atomic species (ntypx) = 10
     Max number of k-points (npk) =  40000
     Max angular momentum in pseudopotentials (lmaxx) =  3
     file Zr.pbe-spn-kjpaw_psl.1.0.0.UPF: wavefunction(s)  4S 4P renormalized
     file Te.pbe-n-kjpaw_psl.1.0.0.UPF: wavefunction(s)  5S 5P renormalized

     Subspace diagonalization in iterative solution of the eigenvalue problem:
     a serial algorithm will be used

     Message from routine setup:
     using ibrav=0 with symmetry is DISCOURAGED, use correct ibrav instead
 
     Parallelization info
     --------------------
     sticks:   dense  smooth     PW     G-vecs:    dense   smooth      PW
     Min         734     293     87               115340    29174    4753
     Max         735     295     88               115345    29176    4760
     Sum        7345    2937    873              1153415   291749   47557
 


     bravais-lattice index     =            0
     lattice parameter (alat)  =      15.5510  a.u.
     unit-cell volume          =    3018.5011 (a.u.)^3
     number of atoms/cell      =           12
     number of atomic types    =            2
     number of electrons       =        84.00
     number of Kohn-Sham states=           50
     kinetic-energy cutoff     =      80.0000  Ry
     charge density cutoff     =     800.0000  Ry
     scf convergence threshold =      1.0E-10
     mixing beta               =       0.7000
     number of iterations used =            8  plain     mixing
     Exchange-correlation= SLA  PW   PBX  PBC
                           (   1   4   3   4   0   0   0)

     celldm(1)=  15.551040  celldm(2)=   0.000000  celldm(3)=   0.000000
     celldm(4)=   0.000000  celldm(5)=   0.000000  celldm(6)=   0.000000

     crystal axes: (cart. coord. in units of alat)
               a(1) = (   0.246007  -0.969268   0.000000 )  
               a(2) = (   0.246007   0.969268   0.000000 )  
               a(3) = (   0.000000   0.000000   1.683031 )  

     reciprocal axes: (cart. coord. in units 2 pi/alat)
               b(1) = (  2.032465 -0.515853  0.000000 )  
               b(2) = (  2.032465  0.515853  0.000000 )  
               b(3) = (  0.000000  0.000000  0.594166 )  


     PseudoPot. # 1 for Zr read from file:
     pseudo/Zr.pbe-spn-kjpaw_psl.1.0.0.UPF
     MD5 check sum: 02112c41713a0468aff2bb39ef194e36
     Pseudo is Projector augmented-wave + core cor, Zval = 12.0
     Generated using &quot;atomic&quot; code by A. Dal Corso  v.6.2.2
     Shape of augmentation charge: PSQ
     Using radial grid of 1225 points,  6 beta functions with: 
                l(1) =   0
                l(2) =   0
                l(3) =   1
                l(4) =   1
                l(5) =   2
                l(6) =   2
     Q(r) pseudized with 0 coefficients 


     PseudoPot. # 2 for Te read from file:
     pseudo/Te.pbe-n-kjpaw_psl.1.0.0.UPF
     MD5 check sum: 66247bff2bd9dbf220fbb0bf5ab56e9d
     Pseudo is Projector augmented-wave + core cor, Zval =  6.0
     Generated using &quot;atomic&quot; code by A. Dal Corso  v.6.3
     Shape of augmentation charge: PSQ
     Using radial grid of 1245 points,  6 beta functions with: 
                l(1) =   0
                l(2) =   0
                l(3) =   1
                l(4) =   1
                l(5) =   2
                l(6) =   2
     Q(r) pseudized with 0 coefficients 


     atomic species   valence    mass     pseudopotential
        Zr            12.00    91.22000     Zr( 1.00)
        Te             6.00   127.60000     Te( 1.00)

      8 Sym. Ops., with inversion, found ( 4 have fractional translation)



   Cartesian axes

     site n.     atom                  positions (alat units)
         1           Zr  tau(   1) = (   0.0000000   0.5981226   0.4207578  )
         2           Zr  tau(   2) = (   0.2460067   0.3711456   1.2622733  )
         3           Te  tau(   3) = (   0.2460067   0.3340980   0.4207578  )
         4           Te  tau(   4) = (   0.0000000   0.6351702   1.2622733  )
         5           Te  tau(   5) = (   0.2460067   0.8132329   0.2543891  )
         6           Te  tau(   6) = (   0.0000000   0.1560352   1.4286420  )
         7           Te  tau(   7) = (   0.2460067   0.8132329   0.5871265  )
         8           Te  tau(   8) = (   0.0000000   0.1560352   1.0959046  )
         9           Te  tau(   9) = (   0.0000000   0.4280042   0.7433925  )
        10           Te  tau(  10) = (   0.2460067   0.5412639   0.9396386  )
        11           Te  tau(  11) = (   0.0000000   0.4280042   0.0981230  )
        12           Te  tau(  12) = (   0.2460067   0.5412639   1.5849080  )

     number of k points=    63  Methfessel-Paxton smearing, width (Ry)=  0.0030
                       cart. coord. in units 2pi/alat
        k(    1) = (   0.0000000   0.0000000   0.0000000), wk =   0.0078125
        k(    2) = (   0.0000000   0.0000000   0.1485415), wk =   0.0156250
        k(    3) = (   0.0000000   0.0000000  -0.2970830), wk =   0.0078125
        k(    4) = (   0.2540581   0.0644816   0.0000000), wk =   0.0312500
        k(    5) = (   0.2540581   0.0644816   0.1485415), wk =   0.0625000
        k(    6) = (   0.2540581   0.0644816  -0.2970830), wk =   0.0312500
        k(    7) = (   0.5081162   0.1289633   0.0000000), wk =   0.0312500
        k(    8) = (   0.5081162   0.1289633   0.1485415), wk =   0.0625000
        k(    9) = (   0.5081162   0.1289633  -0.2970830), wk =   0.0312500
        k(   10) = (   0.7621743   0.1934449   0.0000000), wk =   0.0312500
        k(   11) = (   0.7621743   0.1934449   0.1485415), wk =   0.0625000
        k(   12) = (   0.7621743   0.1934449  -0.2970830), wk =   0.0312500
        k(   13) = (  -1.0162324  -0.2579266   0.0000000), wk =   0.0156250
        k(   14) = (  -1.0162324  -0.2579266   0.1485415), wk =   0.0312500
        k(   15) = (  -1.0162324  -0.2579266  -0.2970830), wk =   0.0156250
        k(   16) = (   0.5081162   0.0000000   0.0000000), wk =   0.0156250
        k(   17) = (   0.5081162   0.0000000   0.1485415), wk =   0.0312500
        k(   18) = (   0.5081162   0.0000000  -0.2970830), wk =   0.0156250
        k(   19) = (   0.7621743   0.0644816   0.0000000), wk =   0.0312500
        k(   20) = (   0.7621743   0.0644816   0.1485415), wk =   0.0625000
        k(   21) = (   0.7621743   0.0644816  -0.2970830), wk =   0.0312500
        k(   22) = (   1.0162324   0.1289633   0.0000000), wk =   0.0312500
        k(   23) = (   1.0162324   0.1289633   0.1485415), wk =   0.0625000
        k(   24) = (   1.0162324   0.1289633  -0.2970830), wk =   0.0312500
        k(   25) = (  -0.7621743  -0.3224082   0.0000000), wk =   0.0312500
        k(   26) = (  -0.7621743  -0.3224082   0.1485415), wk =   0.0625000
        k(   27) = (  -0.7621743  -0.3224082  -0.2970830), wk =   0.0312500
        k(   28) = (  -0.5081162  -0.2579266   0.0000000), wk =   0.0312500
        k(   29) = (  -0.5081162  -0.2579266   0.1485415), wk =   0.0625000
        k(   30) = (  -0.5081162  -0.2579266  -0.2970830), wk =   0.0312500
        k(   31) = (  -0.2540581  -0.1934449   0.0000000), wk =   0.0312500
        k(   32) = (  -0.2540581  -0.1934449   0.1485415), wk =   0.0625000
        k(   33) = (  -0.2540581  -0.1934449  -0.2970830), wk =   0.0312500
        k(   34) = (   0.0000000  -0.1289633   0.0000000), wk =   0.0156250
        k(   35) = (   0.0000000  -0.1289633   0.1485415), wk =   0.0312500
        k(   36) = (   0.0000000  -0.1289633  -0.2970830), wk =   0.0156250
        k(   37) = (   1.0162324   0.0000000   0.0000000), wk =   0.0156250
        k(   38) = (   1.0162324   0.0000000   0.1485415), wk =   0.0312500
        k(   39) = (   1.0162324   0.0000000  -0.2970830), wk =   0.0156250
        k(   40) = (   1.2702905   0.0644816   0.0000000), wk =   0.0312500
        k(   41) = (   1.2702905   0.0644816   0.1485415), wk =   0.0625000
        k(   42) = (   1.2702905   0.0644816  -0.2970830), wk =   0.0312500
        k(   43) = (  -0.5081162  -0.3868899   0.0000000), wk =   0.0312500
        k(   44) = (  -0.5081162  -0.3868899   0.1485415), wk =   0.0625000
        k(   45) = (  -0.5081162  -0.3868899  -0.2970830), wk =   0.0312500
        k(   46) = (  -0.2540581  -0.3224082   0.0000000), wk =   0.0312500
        k(   47) = (  -0.2540581  -0.3224082   0.1485415), wk =   0.0625000
        k(   48) = (  -0.2540581  -0.3224082  -0.2970830), wk =   0.0312500
        k(   49) = (   0.0000000  -0.2579266   0.0000000), wk =   0.0156250
        k(   50) = (   0.0000000  -0.2579266   0.1485415), wk =   0.0312500
        k(   51) = (   0.0000000  -0.2579266  -0.2970830), wk =   0.0156250
        k(   52) = (   1.5243485   0.0000000   0.0000000), wk =   0.0156250
        k(   53) = (   1.5243485   0.0000000   0.1485415), wk =   0.0312500
        k(   54) = (   1.5243485   0.0000000  -0.2970830), wk =   0.0156250
        k(   55) = (  -0.2540581  -0.4513715   0.0000000), wk =   0.0312500
        k(   56) = (  -0.2540581  -0.4513715   0.1485415), wk =   0.0625000
        k(   57) = (  -0.2540581  -0.4513715  -0.2970830), wk =   0.0312500
        k(   58) = (   0.0000000  -0.3868899   0.0000000), wk =   0.0156250
        k(   59) = (   0.0000000  -0.3868899   0.1485415), wk =   0.0312500
        k(   60) = (   0.0000000  -0.3868899  -0.2970830), wk =   0.0156250
        k(   61) = (  -2.0324647   0.0000000   0.0000000), wk =   0.0078125
        k(   62) = (  -2.0324647   0.0000000   0.1485415), wk =   0.0156250
        k(   63) = (  -2.0324647   0.0000000  -0.2970830), wk =   0.0078125

     Dense  grid:  1153415 G-vectors     FFT dimensions: ( 144, 144, 240)

     Smooth grid:   291749 G-vectors     FFT dimensions: (  90,  90, 150)

     Estimated max dynamical RAM per process >     657.19 MB

     Estimated total dynamical RAM >       6.42 GB

     Initial potential from superposition of free atoms

     starting charge   83.99353, renormalised to   84.00000
     Starting wfcs are   66 randomized atomic wfcs
     Checking if some PAW data can be deallocated... 

     total cpu time spent up to now is       42.5 secs

     Self-consistent Calculation

     iteration #  1     ecut=    80.00 Ry     beta= 0.70
     Davidson diagonalization with overlap
     ethr =  1.00E-02,  avg # of iterations =  2.2

     Threshold (ethr) on eigenvalues was too large:
     Diagonalizing with lowered threshold

     Davidson diagonalization with overlap
     ethr =  4.88E-04,  avg # of iterations =  4.0

     total cpu time spent up to now is      204.4 secs

     total energy              =   -4240.67554786 Ry
     estimated scf accuracy    <       0.46080380 Ry

     iteration #  2     ecut=    80.00 Ry     beta= 0.70
     Davidson diagonalization with overlap
     ethr =  5.49E-04,  avg # of iterations =  8.3

     total cpu time spent up to now is      318.6 secs

     total energy              =   -4240.56283147 Ry
     estimated scf accuracy    <       2.08364634 Ry

     iteration #  3     ecut=    80.00 Ry     beta= 0.70
     Davidson diagonalization with overlap
     ethr =  5.49E-04,  avg # of iterations =  5.4

     total cpu time spent up to now is      413.0 secs

     total energy              =   -4240.89995329 Ry
     estimated scf accuracy    <       0.00802048 Ry

     iteration #  4     ecut=    80.00 Ry     beta= 0.70
     Davidson diagonalization with overlap
     c_bands:  1 eigenvalues not converged
     c_bands:  1 eigenvalues not converged
     c_bands:  2 eigenvalues not converged
     c_bands:  1 eigenvalues not converged
     c_bands:  3 eigenvalues not converged
     c_bands:  1 eigenvalues not converged
     c_bands:  1 eigenvalues not converged
     c_bands:  4 eigenvalues not converged
     c_bands:  1 eigenvalues not converged
     c_bands:  2 eigenvalues not converged
     c_bands:  1 eigenvalues not converged
     c_bands:  1 eigenvalues not converged
     c_bands:  1 eigenvalues not converged
     c_bands:  2 eigenvalues not converged
     c_bands:  2 eigenvalues not converged
     c_bands:  1 eigenvalues not converged
     c_bands:  2 eigenvalues not converged
     c_bands:  1 eigenvalues not converged
     c_bands:  1 eigenvalues not converged
     c_bands:  1 eigenvalues not converged
     c_bands:  1 eigenvalues not converged
     ethr =  9.55E-06,  avg # of iterations = 16.8

     total cpu time spent up to now is      584.4 secs

     total energy              =   -4240.90844342 Ry
     estimated scf accuracy    <       0.03256351 Ry

     iteration #  5     ecut=    80.00 Ry     beta= 0.70
     Davidson diagonalization with overlap
     ethr =  9.55E-06,  avg # of iterations =  6.3

     total cpu time spent up to now is      675.4 secs

     total energy              =   -4240.91021899 Ry
     estimated scf accuracy    <       0.00544734 Ry

     iteration #  6     ecut=    80.00 Ry     beta= 0.70
     Davidson diagonalization with overlap
     ethr =  6.48E-06,  avg # of iterations =  4.1

     total cpu time spent up to now is      755.1 secs

     total energy              =   -4240.91071071 Ry
     estimated scf accuracy    <       0.00088627 Ry

     iteration #  7     ecut=    80.00 Ry     beta= 0.70
     Davidson diagonalization with overlap
     ethr =  1.06E-06,  avg # of iterations =  8.2

     total cpu time spent up to now is      864.9 secs

     total energy              =   -4240.91110196 Ry
     estimated scf accuracy    <       0.00071629 Ry

     iteration #  8     ecut=    80.00 Ry     beta= 0.70
     Davidson diagonalization with overlap
     ethr =  8.53E-07,  avg # of iterations =  2.1

     total cpu time spent up to now is      934.3 secs

     total energy              =   -4240.91112483 Ry
     estimated scf accuracy    <       0.00010559 Ry

     iteration #  9     ecut=    80.00 Ry     beta= 0.70
     Davidson diagonalization with overlap
     ethr =  1.26E-07,  avg # of iterations =  6.1

     total cpu time spent up to now is     1024.0 secs

     total energy              =   -4240.91115835 Ry
     estimated scf accuracy    <       0.00001085 Ry

     iteration # 10     ecut=    80.00 Ry     beta= 0.70
     Davidson diagonalization with overlap
     ethr =  1.29E-08,  avg # of iterations =  4.6

     total cpu time spent up to now is     1102.2 secs

     total energy              =   -4240.91116065 Ry
     estimated scf accuracy    <       0.00000080 Ry

     iteration # 11     ecut=    80.00 Ry     beta= 0.70
     Davidson diagonalization with overlap
     ethr =  9.55E-10,  avg # of iterations =  7.7

     total cpu time spent up to now is     1208.6 secs

     total energy              =   -4240.91116131 Ry
     estimated scf accuracy    <       0.00000028 Ry

     iteration # 12     ecut=    80.00 Ry     beta= 0.70
     Davidson diagonalization with overlap
     ethr =  3.35E-10,  avg # of iterations =  2.8

     total cpu time spent up to now is     1280.9 secs

     total energy              =   -4240.91116134 Ry
     estimated scf accuracy    <       0.00000002 Ry

     iteration # 13     ecut=    80.00 Ry     beta= 0.70
     Davidson diagonalization with overlap
     ethr =  2.63E-11,  avg # of iterations =  8.3

     total cpu time spent up to now is     1390.1 secs

     total energy              =   -4240.91116136 Ry
     estimated scf accuracy    <       0.00000002 Ry

     iteration # 14     ecut=    80.00 Ry     beta= 0.70
     Davidson diagonalization with overlap
     ethr =  2.00E-11,  avg # of iterations =  2.3

     total cpu time spent up to now is     1460.1 secs

     total energy              =   -4240.91116136 Ry
     estimated scf accuracy    <          2.9E-09 Ry

     iteration # 15     ecut=    80.00 Ry     beta= 0.70
     Davidson diagonalization with overlap
     ethr =  3.41E-12,  avg # of iterations =  6.2

     total cpu time spent up to now is     1553.7 secs

     total energy              =   -4240.91116136 Ry
     estimated scf accuracy    <          7.3E-10 Ry

     iteration # 16     ecut=    80.00 Ry     beta= 0.70
     Davidson diagonalization with overlap
     ethr =  8.65E-13,  avg # of iterations =  2.0

     total cpu time spent up to now is     1623.2 secs

     total energy              =   -4240.91116136 Ry
     estimated scf accuracy    <          1.8E-10 Ry

     iteration # 17     ecut=    80.00 Ry     beta= 0.70
     Davidson diagonalization with overlap
     ethr =  2.09E-13,  avg # of iterations =  6.2

     total cpu time spent up to now is     1714.5 secs

     End of self-consistent calculation

          k = 0.0000 0.0000 0.0000 ( 36359 PWs)   bands (ev):

   -44.1611 -44.1611 -22.2688 -22.2688 -22.1807 -22.1807 -22.1008 -22.1007
    -8.4929  -8.3477  -7.1377  -7.0024  -5.9830  -5.3865  -4.7617  -4.7131
    -4.5711  -3.7205   0.1510   0.8428   0.8611   1.1772   1.1797   1.5105
     1.5230   1.5768   2.2578   2.8396   2.9185   2.9428   3.1603   3.4415
     3.9355   4.0127   4.1308   4.1478   4.3377   4.4177   4.5477   4.6416
     4.7768   5.1137   5.6116   5.8006   5.8346   5.9622   6.1932   6.6039
     7.1823   7.2677

          k = 0.0000 0.0000 0.1485 ( 36415 PWs)   bands (ev):

   -44.1611 -44.1611 -22.2688 -22.2688 -22.1807 -22.1807 -22.1008 -22.1007
    -8.4741  -8.3719  -7.1131  -7.0182  -5.9258  -5.5297  -4.7508  -4.7193
    -4.4004  -3.8227   0.2315   0.8194   0.9178   0.9724   1.1387   1.5195
     1.5664   1.8320   1.9823   2.8525   2.9082   2.9538   3.3434   3.5201
     3.8569   4.0551   4.1113   4.1510   4.3271   4.3985   4.5282   4.6811
     4.7574   4.7649   5.7931   5.8321   5.8352   6.2181   6.3164   6.4880
     6.9780   7.0665

          k = 0.0000 0.0000-0.2971 ( 36410 PWs)   bands (ev):

   -44.1611 -44.1611 -22.2688 -22.2688 -22.1807 -22.1807 -22.1008 -22.1008
    -8.4257  -8.4257  -7.0612  -7.0612  -5.7611  -5.7611  -4.7344  -4.7344
    -4.0853  -4.0853   0.4659   0.4659   1.0044   1.0044   1.3673   1.3673
     1.5422   1.5422   2.4922   2.4922   2.8817   2.8817   3.6624   3.6624
     3.9217   3.9217   4.1727   4.1727   4.2653   4.2653   4.5051   4.5051
     4.7315   4.7315   5.8175   5.8175   6.1736   6.1736   6.6211   6.6211
     6.6635   6.6635

          k = 0.2541 0.0645 0.0000 ( 36396 PWs)   bands (ev):

   -44.1607 -44.1607 -22.2669 -22.2669 -22.1901 -22.1901 -22.0998 -22.0996
    -8.3625  -8.2188  -7.0755  -6.9524  -5.9268  -5.3379  -4.7182  -4.6690
    -4.6447  -3.9271   0.2204   0.6310   0.9461   0.9822   1.1337   1.3372
     1.3574   1.5576   1.7487   2.6093   2.6459   3.1377   3.3605   3.6854
     3.7699   3.8166   3.9163   3.9585   4.1078   4.3000   4.3387   4.4524
     4.5135   4.6515   5.9859   5.9995   6.1278   6.2655   6.3830   6.7798
     7.0729   7.2632

          k = 0.2541 0.0645 0.1485 ( 36423 PWs)   bands (ev):

   -44.1608 -44.1607 -22.2669 -22.2669 -22.1901 -22.1901 -22.0998 -22.0996
    -8.3440  -8.2428  -7.0530  -6.9667  -5.8697  -5.4797  -4.7105  -4.6742
    -4.4887  -4.0060   0.2885   0.5949   0.8436   1.0119   1.0392   1.2126
     1.4046   1.7117   2.0056   2.6126   2.6299   2.9182   3.4427   3.4813
     3.5173   3.8896   3.9894   4.0702   4.0877   4.2584   4.4503   4.5151
     4.6193   4.7483   5.9011   5.9899   6.1048   6.1845   6.2158   6.8594
     7.2085   7.2234

          k = 0.2541 0.0645-0.2971 ( 36436 PWs)   bands (ev):

   -44.1608 -44.1608 -22.2669 -22.2669 -22.1901 -22.1901 -22.0997 -22.0997
    -8.2961  -8.2961  -7.0058  -7.0058  -5.7069  -5.7069  -4.6924  -4.6924
    -4.2177  -4.2177   0.4603   0.4603   0.8181   0.8181   1.1245   1.1245
     1.6275   1.6275   2.4721   2.4721   2.6449   2.6449   3.3157   3.3157
     3.7135   3.7135   4.0440   4.0440   4.2054   4.2054   4.4904   4.4904
     4.8696   4.8696   5.7701   5.7701   6.1179   6.1179   6.5081   6.5081
     7.3358   7.3358

          k = 0.5081 0.1290 0.0000 ( 36499 PWs)   bands (ev):

   -44.1599 -44.1599 -22.2622 -22.2622 -22.2128 -22.2128 -22.0972 -22.0971
    -7.9789  -7.8384  -6.9263  -6.8296  -5.7744  -5.2144  -4.9706  -4.5982
    -4.5512  -4.5206  -0.2063   0.2871   0.7421   0.7946   1.1644   1.3219
     1.6381   1.6645   1.7251   2.0687   2.1360   2.4826   2.6415   3.4269
     3.4522   3.5528   3.5997   3.7563   3.7575   3.8573   4.0361   4.2704
     4.2890   4.7794   6.0014   6.2286   6.3431   6.6147   6.6723   7.1151
     7.3944   7.5369

          k = 0.5081 0.1290 0.1485 ( 36476 PWs)   bands (ev):

   -44.1599 -44.1599 -22.2622 -22.2622 -22.2128 -22.2128 -22.0972 -22.0971
    -7.9608  -7.8620  -6.9086  -6.8409  -5.7208  -5.3643  -4.8477  -4.6033
    -4.5783  -4.5141  -0.1453   0.2235   0.7501   0.8182   1.1394   1.2157
     1.4071   1.5948   1.9989   2.0877   2.2694   2.5471   2.9072   3.3108
     3.4573   3.4986   3.5592   3.7291   3.7898   3.8136   3.9184   4.2752
     4.3177   4.4563   6.2975   6.3645   6.4700   6.6139   6.7482   6.9941
     7.2587   7.5255

          k = 0.5081 0.1290-0.2971 ( 36466 PWs)   bands (ev):

   -44.1599 -44.1599 -22.2622 -22.2622 -22.2128 -22.2128 -22.0972 -22.0972
    -7.9141  -7.9141  -6.8717  -6.8717  -5.5716  -5.5716  -4.7031  -4.7031
    -4.5392  -4.5392   0.0258   0.0258   0.8974   0.8974   0.9861   0.9861
     1.4840   1.4840   2.0563   2.0563   2.6247   2.6247   3.1871   3.1871
     3.3806   3.3806   3.6016   3.6016   3.7840   3.7840   3.9693   3.9693
     4.3630   4.3630   6.5230   6.5230   6.5755   6.5755   6.8996   6.8996
     7.3127   7.3127

          k = 0.7622 0.1934 0.0000 ( 36521 PWs)   bands (ev):

   -44.1590 -44.1590 -22.2575 -22.2575 -22.2354 -22.2354 -22.0947 -22.0946
    -7.3730  -7.2299  -6.7849  -6.6956  -5.7589  -5.6220  -5.1579  -5.1009
    -4.4691  -4.4299  -0.3571   0.0238   0.0411   0.8715   0.8934   1.3160
     1.4931   1.5924   2.0225   2.1034   2.2242   2.3197   2.4802   2.8219
     3.0373   3.1935   3.3499   3.4204   3.5395   3.6573   3.7068   3.7686
     3.9192   4.6021   6.3332   6.5196   6.6587   6.9859   7.0050   7.0560
     7.4117   7.6156

          k = 0.7622 0.1934 0.1485 ( 36503 PWs)   bands (ev):

   -44.1590 -44.1590 -22.2575 -22.2575 -22.2354 -22.2354 -22.0947 -22.0946
    -7.3553  -7.2552  -6.7682  -6.7061  -5.7355  -5.6382  -5.1540  -5.1145
    -4.4621  -4.4347  -0.3185  -0.0455   0.1432   0.7383   0.9289   1.2564
     1.5006   1.5873   1.9797   2.0170   2.2046   2.5436   2.7204   2.9107
     2.9748   3.0145   3.2719   3.3212   3.5045   3.5916   3.8041   3.9298
     4.0040   4.4662   6.1771   6.4922   6.7982   6.9548   7.0608   7.1530
     7.2397   7.6733

          k = 0.7622 0.1934-0.2971 ( 36522 PWs)   bands (ev):

   -44.1590 -44.1590 -22.2575 -22.2575 -22.2354 -22.2354 -22.0947 -22.0947
    -7.3089  -7.3089  -6.7342  -6.7342  -5.6832  -5.6832  -5.1391  -5.1391
    -4.4473  -4.4473  -0.2005  -0.2005   0.4239   0.4239   1.0718   1.0718
     1.5515   1.5515   1.9739   1.9739   2.4729   2.4729   2.8583   2.8583
     2.9412   2.9412   3.2485   3.2485   3.5874   3.5874   3.9696   3.9696
     4.1098   4.1098   6.4978   6.4978   6.5774   6.5774   7.0969   7.0969
     7.6168   7.6168

          k =-1.0162-0.2579 0.0000 ( 36506 PWs)   bands (ev):

   -44.1586 -44.1586 -22.2555 -22.2555 -22.2447 -22.2447 -22.0936 -22.0936
    -6.8021  -6.7802  -6.4508  -6.4475  -6.4378  -6.4252  -5.1251  -5.1246
    -4.4102  -4.3786  -0.2077  -0.1907   0.0949   0.1158   1.0139   1.0203
     1.4666   1.6532   2.1908   2.3448   2.3781   2.4060   2.7716   2.8514
     2.8746   2.9283   3.1680   3.2065   3.2751   3.3318   3.4270   3.5834
     4.0540   4.2946   6.7320   6.7957   6.9332   6.9444   7.1498   7.2505
     7.2508   7.3268

          k =-1.0162-0.2579 0.1485 ( 36506 PWs)   bands (ev):

   -44.1586 -44.1586 -22.2555 -22.2555 -22.2447 -22.2447 -22.0936 -22.0936
    -6.7953  -6.7792  -6.4912  -6.4845  -6.3989  -6.3939  -5.1238  -5.1235
    -4.4074  -4.3850  -0.2945  -0.2891   0.2634   0.2719   1.0106   1.0173
     1.4571   1.5857   2.0990   2.2511   2.3151   2.3857   2.6151   2.6519
     2.9182   2.9999   3.1365   3.2311   3.4639   3.5287   3.5807   3.6648
     4.1588   4.3050   6.4127   6.4352   6.6310   6.7089   7.2644   7.2687
     7.4991   7.5683

          k =-1.0162-0.2579-0.2971 ( 36528 PWs)   bands (ev):

   -44.1586 -44.1586 -22.2555 -22.2555 -22.2447 -22.2447 -22.0936 -22.0936
    -6.7831  -6.7831  -6.5084  -6.5084  -6.3797  -6.3797  -5.1225  -5.1225
    -4.3980  -4.3980  -0.3500  -0.3500   0.4144   0.4144   0.9909   0.9909
     1.4958   1.4958   2.0147   2.0147   2.3281   2.3281   2.7414   2.7414
     2.7794   2.7794   3.2248   3.2248   3.6100   3.6100   3.7501   3.7501
     4.3295   4.3295   6.0976   6.0976   6.5681   6.5681   7.2761   7.2761
     7.6452   7.6452

          k = 0.5081 0.0000 0.0000 ( 36503 PWs)   bands (ev):

   -44.1599 -44.1599 -22.2622 -22.2622 -22.2128 -22.2128 -22.0972 -22.0971
    -7.9801  -7.8387  -6.9263  -6.8295  -5.7716  -5.2135  -4.9685  -4.5909
    -4.5596  -4.5201  -0.2024   0.2799   0.7481   0.8013   1.1611   1.2841
     1.6334   1.6520   1.7095   2.0756   2.1317   2.4724   2.6464   3.4411
     3.4434   3.5872   3.6122   3.7373   3.7708   3.9026   4.0138   4.2930
     4.3066   4.7665   6.0080   6.2037   6.3718   6.5789   6.6198   7.1554
     7.3972   7.5676

          k = 0.5081 0.0000 0.1485 ( 36453 PWs)   bands (ev):

   -44.1599 -44.1599 -22.2622 -22.2622 -22.2128 -22.2128 -22.0972 -22.0971
    -7.9620  -7.8625  -6.9085  -6.8408  -5.7184  -5.3633  -4.8450  -4.6035
    -4.5757  -4.5177  -0.1422   0.2187   0.7583   0.8175   1.1447   1.2041
     1.3687   1.5732   1.9989   2.1055   2.2499   2.5378   2.9106   3.3231
     3.4808   3.4885   3.5724   3.7532   3.7806   3.8682   3.8755   4.3000
     4.3468   4.4334   6.2828   6.3718   6.4884   6.5730   6.7106   7.0293
     7.2680   7.5471

          k = 0.5081 0.0000-0.2971 ( 36452 PWs)   bands (ev):

   -44.1599 -44.1599 -22.2622 -22.2622 -22.2128 -22.2128 -22.0972 -22.0972
    -7.9150  -7.9150  -6.8714  -6.8714  -5.5700  -5.5700  -4.7003  -4.7003
    -4.5411  -4.5411   0.0262   0.0262   0.8949   0.8949   0.9900   0.9900
     1.4515   1.4515   2.0615   2.0615   2.6130   2.6130   3.1971   3.1971
     3.3909   3.3909   3.6016   3.6016   3.8164   3.8164   3.9504   3.9504
     4.3796   4.3796   6.5303   6.5303   6.5462   6.5462   6.9167   6.9167
     7.3170   7.3170

          k = 0.7622 0.0645 0.0000 ( 36505 PWs)   bands (ev):

   -44.1590 -44.1590 -22.2575 -22.2575 -22.2354 -22.2354 -22.0947 -22.0946
    -7.3762  -7.2305  -6.7820  -6.6944  -5.7596  -5.6204  -5.1566  -5.1012
    -4.4572  -4.4424  -0.3493   0.0291   0.0417   0.8628   0.9218   1.3287
     1.4677   1.5517   1.9865   2.0892   2.2597   2.3403   2.4279   2.7976
     3.0294   3.2305   3.3539   3.4318   3.6046   3.6798   3.7136   3.7435
     3.8545   4.6183   6.3313   6.4879   6.6899   6.9793   7.0149   7.0390
     7.4140   7.6679

          k = 0.7622 0.0645 0.1485 ( 36509 PWs)   bands (ev):

   -44.1590 -44.1590 -22.2575 -22.2575 -22.2354 -22.2354 -22.0947 -22.0946
    -7.3583  -7.2564  -6.7652  -6.7044  -5.7361  -5.6371  -5.1529  -5.1145
    -4.4537  -4.4434  -0.3107  -0.0379   0.1401   0.7293   0.9543   1.2677
     1.4755   1.5821   1.9509   1.9658   2.2097   2.5394   2.7241   2.8985
     2.9807   3.0082   3.3035   3.3247   3.5460   3.5807   3.7907   3.9643
     3.9688   4.4564   6.2017   6.4674   6.8185   6.9533   7.0383   7.1819
     7.2190   7.7103

          k = 0.7622 0.0645-0.2971 ( 36472 PWs)   bands (ev):

   -44.1590 -44.1590 -22.2575 -22.2575 -22.2354 -22.2354 -22.0947 -22.0947
    -7.3112  -7.3112  -6.7316  -6.7316  -5.6832  -5.6832  -5.1384  -5.1384
    -4.4474  -4.4474  -0.1929  -0.1929   0.4182   0.4182   1.0889   1.0889
     1.5476   1.5476   1.9214   1.9214   2.4806   2.4806   2.8630   2.8630
     2.9154   2.9154   3.2923   3.2923   3.5841   3.5841   4.0058   4.0058
     4.0632   4.0632   6.5281   6.5281   6.5736   6.5736   7.0688   7.0688
     7.6448   7.6448

          k = 1.0162 0.1290 0.0000 ( 36514 PWs)   bands (ev):

   -44.1586 -44.1586 -22.2555 -22.2555 -22.2447 -22.2447 -22.0936 -22.0936
    -6.8021  -6.7801  -6.4508  -6.4475  -6.4377  -6.4253  -5.1251  -5.1246
    -4.4102  -4.3786  -0.2133  -0.1851   0.0930   0.1179   1.0046   1.0303
     1.4742   1.6423   2.1863   2.3526   2.3869   2.3963   2.7513   2.8805
     2.8887   2.9193   3.1634   3.1896   3.2832   3.3164   3.4471   3.5805
     4.0353   4.3134   6.7248   6.8076   6.9105   6.9666   7.1764   7.2503
     7.2527   7.3019

          k = 1.0162 0.1290 0.1485 ( 36524 PWs)   bands (ev):

   -44.1586 -44.1586 -22.2555 -22.2555 -22.2447 -22.2447 -22.0936 -22.0936
    -6.7953  -6.7792  -6.4912  -6.4845  -6.3989  -6.3940  -5.1238  -5.1235
    -4.4074  -4.3850  -0.2970  -0.2868   0.2645   0.2713   1.0067   1.0211
     1.4641   1.5784   2.1032   2.2363   2.3192   2.3882   2.6111   2.6637
     2.9053   3.0139   3.1381   3.2252   3.4708   3.4990   3.6107   3.6596
     4.1386   4.3246   6.4099   6.4451   6.6271   6.7105   7.2657   7.2689
     7.5071   7.5598

          k = 1.0162 0.1290-0.2971 ( 36516 PWs)   bands (ev):

   -44.1586 -44.1586 -22.2555 -22.2555 -22.2447 -22.2447 -22.0936 -22.0936
    -6.7831  -6.7831  -6.5084  -6.5084  -6.3797  -6.3797  -5.1225  -5.1225
    -4.3980  -4.3980  -0.3502  -0.3502   0.4147   0.4147   0.9907   0.9907
     1.4970   1.4970   2.0147   2.0147   2.3248   2.3248   2.7199   2.7199
     2.8068   2.8068   3.2194   3.2194   3.6116   3.6116   3.7498   3.7498
     4.3303   4.3303   6.1009   6.1009   6.5671   6.5671   7.2767   7.2767
     7.6446   7.6446

          k =-0.7622-0.3224 0.0000 ( 36511 PWs)   bands (ev):

   -44.1590 -44.1590 -22.2575 -22.2575 -22.2354 -22.2354 -22.0947 -22.0946
    -7.3683  -7.2289  -6.7893  -6.6970  -5.7579  -5.6243  -5.1597  -5.1005
    -4.4781  -4.4200  -0.3680   0.0177   0.0387   0.8609   0.8836   1.3005
     1.5020   1.6666   2.0916   2.1261   2.2099   2.2893   2.4805   2.8602
     3.0440   3.1789   3.3408   3.4078   3.5089   3.6133   3.6926   3.7061
     4.0564   4.5725   6.3357   6.5626   6.6316   6.9081   7.0427   7.1273
     7.3980   7.5445

          k =-0.7622-0.3224 0.1485 ( 36492 PWs)   bands (ev):

   -44.1590 -44.1590 -22.2575 -22.2575 -22.2354 -22.2354 -22.0947 -22.0946
    -7.3510  -7.2535  -6.7726  -6.7083  -5.7347  -5.6396  -5.1555  -5.1146
    -4.4685  -4.4278  -0.3294  -0.0558   0.1469   0.7507   0.8991   1.2402
     1.5234   1.6040   2.0214   2.0906   2.2069   2.5422   2.6897   2.9345
     2.9726   3.0397   3.2484   3.2949   3.4742   3.5752   3.7964   3.8799
     4.0806   4.4781   6.1451   6.5308   6.7632   6.9529   7.0737   7.1625
     7.2613   7.6000

          k =-0.7622-0.3224-0.2971 ( 36508 PWs)   bands (ev):

   -44.1590 -44.1590 -22.2575 -22.2575 -22.2354 -22.2354 -22.0947 -22.0947
    -7.3057  -7.3057  -6.7379  -6.7379  -5.6831  -5.6831  -5.1400  -5.1400
    -4.4472  -4.4472  -0.2110  -0.2110   0.4315   0.4315   1.0513   1.0513
     1.5585   1.5585   2.0406   2.0406   2.4709   2.4709   2.8545   2.8545
     2.9747   2.9747   3.1899   3.1899   3.5848   3.5848   3.9216   3.9216
     4.1724   4.1724   6.4632   6.4632   6.5772   6.5772   7.1411   7.1411
     7.5544   7.5544

          k =-0.5081-0.2579 0.0000 ( 36480 PWs)   bands (ev):

   -44.1599 -44.1599 -22.2622 -22.2622 -22.2128 -22.2128 -22.0972 -22.0971
    -7.9757  -7.8377  -6.9265  -6.8294  -5.7812  -5.2166  -4.9756  -4.6088
    -4.5379  -4.5219  -0.2158   0.3042   0.7308   0.7772   1.1727   1.4202
     1.6470   1.6952   1.7707   2.0553   2.1359   2.5039   2.6278   3.3629
     3.4782   3.5079   3.5896   3.6943   3.7734   3.7783   4.0993   4.1809
     4.2776   4.8069   5.9880   6.2567   6.3073   6.7059   6.7996   7.0228
     7.3839   7.4704

          k =-0.5081-0.2579 0.1485 ( 36485 PWs)   bands (ev):

   -44.1599 -44.1599 -22.2622 -22.2622 -22.2128 -22.2128 -22.0972 -22.0971
    -7.9579  -7.8609  -6.9092  -6.8411  -5.7267  -5.3668  -4.8544  -4.6031
    -4.5833  -4.5065  -0.1527   0.2348   0.7355   0.8143   1.1334   1.2407
     1.5050   1.6555   1.9863   2.0592   2.3069   2.5657   2.8975   3.2637
     3.4197   3.5123   3.5366   3.6795   3.7307   3.7826   3.9985   4.2023
     4.2783   4.4927   6.3279   6.3351   6.4434   6.7055   6.8454   6.9215
     7.2291   7.4807

          k =-0.5081-0.2579-0.2971 ( 36478 PWs)   bands (ev):

   -44.1599 -44.1599 -22.2622 -22.2622 -22.2128 -22.2128 -22.0972 -22.0972
    -7.9120  -7.9120  -6.8725  -6.8725  -5.5755  -5.5755  -4.7097  -4.7097
    -4.5347  -4.5347   0.0249   0.0249   0.9037   0.9037   0.9772   0.9772
     1.5707   1.5707   2.0374   2.0374   2.6600   2.6600   3.1437   3.1437
     3.3619   3.3619   3.5957   3.5957   3.7219   3.7219   4.0087   4.0087
     4.3263   4.3263   6.4926   6.4926   6.6529   6.6529   6.8615   6.8615
     7.3091   7.3091

          k =-0.2541-0.1934 0.0000 ( 36410 PWs)   bands (ev):

   -44.1608 -44.1607 -22.2669 -22.2669 -22.1901 -22.1901 -22.0998 -22.0996
    -8.3604  -8.2183  -7.0726  -6.9512  -5.9376  -5.3428  -4.7369  -4.6640
    -4.6338  -3.9277   0.2422   0.6244   0.9514   1.0342   1.1481   1.3647
     1.3825   1.6081   1.7623   2.5801   2.6355   3.1416   3.4105   3.6654
     3.7394   3.7671   3.9074   3.9212   3.9503   4.2179   4.2834   4.4115
     4.4588   4.6929   6.0369   6.0583   6.2189   6.2526   6.4106   6.8321
     7.0346   7.1943

          k =-0.2541-0.1934 0.1485 ( 36427 PWs)   bands (ev):

   -44.1608 -44.1607 -22.2669 -22.2669 -22.1901 -22.1901 -22.0998 -22.0996
    -8.3420  -8.2420  -7.0507  -6.9656  -5.8795  -5.4850  -4.7246  -4.6658
    -4.4865  -4.0061   0.3107   0.5934   0.8447   1.0519   1.0854   1.2415
     1.4216   1.7227   2.0421   2.5805   2.6249   2.9250   3.4501   3.4890
     3.5563   3.8230   3.8858   3.9143   4.0520   4.2218   4.4148   4.4542
     4.5888   4.7879   5.9145   5.9827   6.1396   6.2590   6.2913   6.8525
     7.1787   7.2106

          k =-0.2541-0.1934-0.2971 ( 36422 PWs)   bands (ev):

   -44.1607 -44.1607 -22.2669 -22.2669 -22.1901 -22.1901 -22.0997 -22.0997
    -8.2946  -8.2946  -7.0044  -7.0044  -5.7142  -5.7142  -4.6951  -4.6951
    -4.2169  -4.2169   0.4766   0.4766   0.8271   0.8271   1.1721   1.1721
     1.6387   1.6387   2.4792   2.4792   2.6440   2.6440   3.3158   3.3158
     3.7451   3.7451   3.8645   3.8645   4.1808   4.1808   4.4362   4.4362
     4.8864   4.8864   5.7546   5.7546   6.1854   6.1854   6.5233   6.5233
     7.3251   7.3251

          k = 0.0000-0.1290 0.0000 ( 36417 PWs)   bands (ev):

   -44.1611 -44.1611 -22.2688 -22.2688 -22.1807 -22.1807 -22.1008 -22.1007
    -8.4917  -8.3474  -7.1355  -7.0016  -5.9900  -5.3900  -4.7707  -4.7064
    -4.5706  -3.7207   0.1645   0.8448   0.9017   1.1889   1.1915   1.5102
     1.5573   1.5765   2.2539   2.8465   2.9227   2.9424   3.1608   3.4803
     3.9291   4.0011   4.0086   4.0141   4.2855   4.4181   4.5031   4.6277
     4.7752   5.0985   5.6286   5.8461   5.8893   5.9887   6.2014   6.6231
     7.1824   7.2122

          k = 0.0000-0.1290 0.1485 ( 36419 PWs)   bands (ev):

   -44.1611 -44.1611 -22.2688 -22.2688 -22.1807 -22.1807 -22.1008 -22.1007
    -8.4730  -8.3715  -7.1112  -7.0173  -5.9322  -5.5334  -4.7589  -4.7136
    -4.4002  -3.8228   0.2459   0.8446   0.9411   0.9778   1.1606   1.5192
     1.5661   1.8383   1.9982   2.8591   2.9129   2.9591   3.3299   3.5609
     3.8681   3.9787   4.0202   4.0440   4.3218   4.3430   4.4897   4.6734
     4.7496   4.7631   5.8251   5.8598   5.8832   6.2250   6.3232   6.5066
     6.9794   7.0231

          k = 0.0000-0.1290-0.2971 ( 36464 PWs)   bands (ev):

   -44.1611 -44.1611 -22.2688 -22.2688 -22.1807 -22.1807 -22.1008 -22.1008
    -8.4249  -8.4249  -7.0600  -7.0600  -5.7660  -5.7660  -4.7356  -4.7356
    -4.0851  -4.0851   0.4827   0.4827   1.0308   1.0308   1.3711   1.3711
     1.5420   1.5420   2.5056   2.5056   2.8873   2.8873   3.6747   3.6747
     3.8706   3.8706   4.1633   4.1633   4.1728   4.1728   4.4761   4.4761
     4.7283   4.7283   5.8582   5.8582   6.1890   6.1890   6.6251   6.6251
     6.6466   6.6466

          k = 1.0162 0.0000 0.0000 ( 36499 PWs)   bands (ev):

   -44.1586 -44.1586 -22.2555 -22.2555 -22.2447 -22.2447 -22.0936 -22.0936
    -6.8022  -6.7801  -6.4508  -6.4475  -6.4376  -6.4254  -5.1251  -5.1246
    -4.4102  -4.3786  -0.2172  -0.1811   0.0912   0.1196   0.9999   1.0356
     1.4830   1.6301   2.1822   2.3687   2.3782   2.3953   2.7388   2.8959
     2.9008   2.9208   3.1290   3.2208   3.2805   3.2914   3.4675   3.5767
     4.0190   4.3299   6.7192   6.8182   6.8992   6.9776   7.2329   7.2472
     7.2505   7.2541

          k = 1.0162 0.0000 0.1485 ( 36485 PWs)   bands (ev):

   -44.1586 -44.1586 -22.2555 -22.2555 -22.2447 -22.2447 -22.0936 -22.0936
    -6.7953  -6.7792  -6.4912  -6.4845  -6.3989  -6.3940  -5.1239  -5.1235
    -4.4074  -4.3850  -0.2987  -0.2854   0.2659   0.2704   1.0044   1.0234
     1.4723   1.5700   2.1081   2.2218   2.3248   2.3878   2.6116   2.6703
     2.8968   3.0245   3.1407   3.2179   3.4788   3.4799   3.6303   3.6534
     4.1219   4.3407   6.4088   6.4534   6.6234   6.7119   7.2671   7.2690
     7.5199   7.5466

          k = 1.0162 0.0000-0.2971 ( 36514 PWs)   bands (ev):

   -44.1586 -44.1586 -22.2555 -22.2555 -22.2447 -22.2447 -22.0936 -22.0936
    -6.7831  -6.7831  -6.5084  -6.5084  -6.3797  -6.3797  -5.1225  -5.1225
    -4.3980  -4.3980  -0.3503  -0.3503   0.4149   0.4149   0.9904   0.9904
     1.4983   1.4983   2.0147   2.0147   2.3215   2.3215   2.7075   2.7075
     2.8253   2.8253   3.2137   3.2137   3.6132   3.6132   3.7496   3.7496
     4.3311   4.3311   6.1043   6.1043   6.5661   6.5661   7.2773   7.2773
     7.6437   7.6437

          k = 1.2703 0.0645 0.0000 ( 36468 PWs)   bands (ev):

   -44.1590 -44.1590 -22.2575 -22.2575 -22.2354 -22.2354 -22.0947 -22.0946
    -7.3649  -7.2283  -6.7927  -6.6978  -5.7573  -5.6259  -5.1609  -5.1002
    -4.4829  -4.4146  -0.3756   0.0141   0.0363   0.8415   0.8921   1.2908
     1.5016   1.7216   2.1425   2.1460   2.2535   2.2650   2.4076   2.8918
     3.0438   3.1870   3.3601   3.3938   3.5107   3.5638   3.6459   3.6791
     4.1582   4.5414   6.3374   6.5849   6.6313   6.8513   7.0705   7.1982
     7.3701   7.5178

          k = 1.2703 0.0645 0.1485 ( 36490 PWs)   bands (ev):

   -44.1590 -44.1590 -22.2575 -22.2575 -22.2354 -22.2354 -22.0947 -22.0946
    -7.3479  -7.2523  -6.7759  -6.7097  -5.7341  -5.6406  -5.1565  -5.1147
    -4.4719  -4.4240  -0.3369  -0.0627   0.1490   0.7594   0.8812   1.2296
     1.5309   1.6221   2.0535   2.1296   2.2322   2.5374   2.6453   2.9575
     2.9735   3.0705   3.2420   3.2597   3.4816   3.5347   3.7829   3.8436
     4.1456   4.4838   6.1248   6.5620   6.7333   6.9494   7.0631   7.2204
     7.2633   7.5415

          k = 1.2703 0.0645-0.2971 ( 36480 PWs)   bands (ev):

   -44.1590 -44.1590 -22.2575 -22.2575 -22.2354 -22.2354 -22.0947 -22.0947
    -7.3035  -7.3035  -6.7405  -6.7405  -5.6831  -5.6831  -5.1407  -5.1407
    -4.4471  -4.4471  -0.2182  -0.2182   0.4365   0.4365   1.0389   1.0389
     1.5643   1.5643   2.0813   2.0813   2.4784   2.4784   2.8547   2.8547
     2.9911   2.9911   3.1542   3.1542   3.5774   3.5774   3.8879   3.8879
     4.2171   4.2171   6.4420   6.4420   6.5757   6.5757   7.1763   7.1763
     7.4921   7.4922

          k =-0.5081-0.3869 0.0000 ( 36463 PWs)   bands (ev):

   -44.1599 -44.1599 -22.2622 -22.2622 -22.2128 -22.2128 -22.0972 -22.0971
    -7.9726  -7.8370  -6.9273  -6.8287  -5.7881  -5.2187  -4.9808  -4.6156
    -4.5283  -4.5231  -0.2251   0.3210   0.7263   0.7546   1.1811   1.5430
     1.6576   1.7266   1.8034   2.0325   2.1547   2.5016   2.6115   3.2798
     3.5048   3.5138   3.5804   3.5920   3.7241   3.7899   4.0801   4.1726
     4.2647   4.8310   5.9771   6.1866   6.3727   6.8055   6.9350   6.9390
     7.3557   7.4282

          k =-0.5081-0.3869 0.1485 ( 36477 PWs)   bands (ev):

   -44.1599 -44.1599 -22.2622 -22.2622 -22.2128 -22.2128 -22.0972 -22.0971
    -7.9551  -7.8597  -6.9102  -6.8410  -5.7326  -5.3693  -4.8609  -4.6032
    -4.5871  -4.5000  -0.1599   0.2457   0.7256   0.8053   1.1322   1.2633
     1.6284   1.7285   1.9484   2.0281   2.3643   2.5574   2.8834   3.2041
     3.3797   3.5204   3.5329   3.6004   3.7254   3.7481   4.0582   4.1426
     4.2428   4.5236   6.2726   6.3742   6.4328   6.7935   6.8291   6.9932
     7.1819   7.4568

          k =-0.5081-0.3869-0.2971 ( 36492 PWs)   bands (ev):

   -44.1599 -44.1599 -22.2622 -22.2622 -22.2128 -22.2128 -22.0972 -22.0972
    -7.9099  -7.9099  -6.8732  -6.8732  -5.5794  -5.5794  -4.7160  -4.7160
    -4.5304  -4.5304   0.0240   0.0240   0.9104   0.9104   0.9682   0.9682
     1.6797   1.6797   1.9998   1.9998   2.7131   2.7131   3.0604   3.0604
     3.3539   3.3539   3.5803   3.5803   3.6839   3.6839   4.0354   4.0354
     4.2999   4.2999   6.4628   6.4628   6.7041   6.7041   6.8406   6.8406
     7.3259   7.3259

          k =-0.2541-0.3224 0.0000 ( 36485 PWs)   bands (ev):

   -44.1608 -44.1608 -22.2669 -22.2669 -22.1901 -22.1901 -22.0998 -22.0996
    -8.3573  -8.2176  -7.0690  -6.9489  -5.9532  -5.3497  -4.7580  -4.6531
    -4.6276  -3.9286   0.2674   0.6160   0.9591   1.0869   1.2119   1.4106
     1.4172   1.6933   1.7839   2.5173   2.5919   3.1737   3.4890   3.5843
     3.6370   3.6463   3.7855   3.9260   3.9548   4.1428   4.1809   4.3396
     4.3962   4.7508   6.0904   6.1523   6.2184   6.3367   6.4499   6.9017
     6.9570   7.1134

          k =-0.2541-0.3224 0.1485 ( 36445 PWs)   bands (ev):

   -44.1608 -44.1607 -22.2669 -22.2669 -22.1901 -22.1901 -22.0998 -22.0996
    -8.3392  -8.2408  -7.0478  -6.9635  -5.8934  -5.4925  -4.7399  -4.6583
    -4.4838  -4.0063   0.3368   0.5911   0.8455   1.0801   1.1911   1.2935
     1.4559   1.7469   2.1010   2.5199   2.5838   2.9545   3.4370   3.4763
     3.6275   3.6296   3.6815   3.9139   4.0017   4.1595   4.3475   4.3898
     4.5693   4.8334   5.9260   5.9748   6.1813   6.3270   6.3992   6.8103
     7.1653   7.1964

          k =-0.2541-0.3224-0.2971 ( 36442 PWs)   bands (ev):

   -44.1608 -44.1608 -22.2669 -22.2669 -22.1901 -22.1901 -22.0997 -22.0997
    -8.2925  -8.2925  -7.0024  -7.0024  -5.7245  -5.7245  -4.6990  -4.6990
    -4.2156  -4.2156   0.4954   0.4954   0.8373   0.8373   1.2570   1.2570
     1.6617   1.6617   2.4824   2.4824   2.6365   2.6365   3.3079   3.3079
     3.6190   3.6190   3.8240   3.8240   4.1225   4.1225   4.3727   4.3727
     4.9073   4.9073   5.7400   5.7400   6.2316   6.2316   6.5543   6.5543
     7.3166   7.3166

          k = 0.0000-0.2579 0.0000 ( 36445 PWs)   bands (ev):

   -44.1611 -44.1611 -22.2688 -22.2688 -22.1807 -22.1807 -22.1008 -22.1007
    -8.4890  -8.3468  -7.1304  -6.9992  -6.0072  -5.3983  -4.7882  -4.6934
    -4.5703  -3.7213   0.1921   0.8513   1.0090   1.2154   1.2464   1.5095
     1.5758   1.6298   2.2452   2.8639   2.9327   2.9478   3.1636   3.5869
     3.6568   3.7128   3.9728   3.9917   4.1613   4.3801   4.4190   4.5942
     4.7715   5.0734   5.6703   5.9313   5.9769   6.0581   6.2216   6.6654
     7.0727   7.1825

          k = 0.0000-0.2579 0.1485 ( 36452 PWs)   bands (ev):

   -44.1611 -44.1611 -22.2688 -22.2688 -22.1807 -22.1807 -22.1008 -22.1007
    -8.4705  -8.3704  -7.1070  -7.0148  -5.9477  -5.5424  -4.7733  -4.7048
    -4.3996  -3.8230   0.2755   0.8834   0.9797   1.0496   1.2206   1.5186
     1.5654   1.8511   2.0399   2.8754   2.9240   2.9747   3.3047   3.6094
     3.6922   3.7347   3.9234   4.0168   4.2218   4.3078   4.3772   4.6560
     4.7426   4.7589   5.8825   5.9197   5.9630   6.2411   6.3399   6.5454
     6.9106   6.9829

          k = 0.0000-0.2579-0.2971 ( 36454 PWs)   bands (ev):

   -44.1611 -44.1611 -22.2688 -22.2688 -22.1807 -22.1807 -22.1008 -22.1008
    -8.4230  -8.4230  -7.0571  -7.0571  -5.7779  -5.7779  -4.7388  -4.7388
    -4.0847  -4.0847   0.5176   0.5176   1.1091   1.1091   1.3827   1.3827
     1.5413   1.5413   2.5402   2.5402   2.9011   2.9011   3.5806   3.5806
     3.7842   3.7842   4.0682   4.0682   4.1400   4.1400   4.4013   4.4013
     4.7210   4.7210   5.9224   5.9224   6.2293   6.2293   6.5945   6.5945
     6.6350   6.6350

          k = 1.5243 0.0000 0.0000 ( 36439 PWs)   bands (ev):

   -44.1599 -44.1599 -22.2622 -22.2622 -22.2128 -22.2128 -22.0972 -22.0971
    -7.9713  -7.8367  -6.9277  -6.8282  -5.7910  -5.2195  -4.9829  -4.6178
    -4.5249  -4.5236  -0.2289   0.3279   0.7340   0.7360   1.1846   1.6104
     1.6732   1.7400   1.7860   2.0215   2.1842   2.4809   2.6040   3.2529
     3.4919   3.5333   3.5439   3.5936   3.7016   3.7975   4.0313   4.2048
     4.2590   4.8401   5.9731   6.1542   6.4044   6.8504   6.8994   7.0079
     7.3277   7.4799

          k = 1.5243 0.0000 0.1485 ( 36476 PWs)   bands (ev):

   -44.1599 -44.1599 -22.2622 -22.2622 -22.2128 -22.2128 -22.0972 -22.0971
    -7.9539  -7.8592  -6.9106  -6.8408  -5.7351  -5.3703  -4.8636  -4.6033
    -4.5883  -4.4976  -0.1628   0.2502   0.7226   0.8003   1.1325   1.2721
     1.7183   1.7414   1.9242   2.0032   2.4197   2.5205   2.8740   3.1896
     3.3454   3.5299   3.5312   3.5796   3.7254   3.7326   4.0490   4.1517
     4.2247   4.5361   6.2456   6.3920   6.4314   6.7897   6.8401   7.0701
     7.1395   7.4804

          k = 1.5243 0.0000-0.2971 ( 36508 PWs)   bands (ev):

   -44.1599 -44.1599 -22.2622 -22.2622 -22.2128 -22.2128 -22.0972 -22.0972
    -7.9090  -7.9090  -6.8736  -6.8736  -5.5810  -5.5810  -4.7185  -4.7185
    -4.5287  -4.5287   0.0236   0.0236   0.9136   0.9136   0.9642   0.9642
     1.7406   1.7406   1.9697   1.9697   2.7478   2.7478   3.0067   3.0067
     3.3536   3.3536   3.5717   3.5717   3.6745   3.6745   4.0403   4.0403
     4.2944   4.2944   6.4505   6.4505   6.7090   6.7090   6.8440   6.8440
     7.3448   7.3448

          k =-0.2541-0.4514 0.0000 ( 36444 PWs)   bands (ev):

   -44.1608 -44.1607 -22.2669 -22.2669 -22.1901 -22.1901 -22.0998 -22.0996
    -8.3552  -8.2171  -7.0669  -6.9468  -5.9644  -5.3545  -4.7708  -4.6405
    -4.6302  -3.9292   0.2809   0.6105   0.9647   1.1074   1.3065   1.4263
     1.4414   1.7744   1.8147   2.4513   2.5220   3.2387   3.4369   3.4689
     3.5456   3.6267   3.8572   3.9300   3.9583   4.0442   4.1049   4.2691
     4.3812   4.7884   6.1228   6.1978   6.2339   6.3999   6.4753   6.8793
     6.9472   7.0692

          k =-0.2541-0.4514 0.1485 ( 36461 PWs)   bands (ev):

   -44.1608 -44.1608 -22.2669 -22.2669 -22.1901 -22.1901 -22.0998 -22.0996
    -8.3372  -8.2400  -7.0460  -6.9617  -5.9033  -5.4977  -4.7493  -4.6541
    -4.4822  -4.0064   0.3512   0.5894   0.8458   1.1025   1.2571   1.3554
     1.4900   1.7751   2.1629   2.4568   2.5099   2.9969   3.3708   3.4145
     3.5182   3.5809   3.7638   3.9109   3.9804   4.0487   4.3013   4.3682
     4.5576   4.8632   5.9329   5.9683   6.2174   6.3601   6.4640   6.7563
     7.1761   7.1868

          k =-0.2541-0.4514-0.2971 ( 36490 PWs)   bands (ev):

   -44.1608 -44.1608 -22.2669 -22.2669 -22.1901 -22.1901 -22.0997 -22.0997
    -8.2910  -8.2910  -7.0010  -7.0010  -5.7317  -5.7317  -4.7017  -4.7017
    -4.2147  -4.2147   0.5060   0.5060   0.8425   0.8425   1.3309   1.3309
     1.6884   1.6884   2.4678   2.4678   2.6303   2.6303   3.2816   3.2816
     3.4906   3.4906   3.8932   3.8932   4.0465   4.0465   4.3381   4.3381
     4.9207   4.9207   5.7322   5.7322   6.2421   6.2421   6.5770   6.5770
     7.3156   7.3156

          k = 0.0000-0.3869 0.0000 ( 36477 PWs)   bands (ev):

   -44.1611 -44.1611 -22.2688 -22.2688 -22.1807 -22.1807 -22.1008 -22.1007
    -8.4862  -8.3462  -7.1259  -6.9959  -6.0247  -5.4065  -4.8030  -4.6815
    -4.5715  -3.7219   0.2121   0.8599   1.1518   1.2392   1.3116   1.5089
     1.5751   1.7055   2.2377   2.8827   2.9422   2.9627   3.1575   3.3317
     3.4531   3.7397   3.9440   4.0146   4.0284   4.2174   4.4199   4.5608
     4.7679   5.0551   5.7121   5.9906   6.0320   6.1439   6.2420   6.7012
     6.9202   7.1825

          k = 0.0000-0.3869 0.1485 ( 36452 PWs)   bands (ev):

   -44.1611 -44.1611 -22.2688 -22.2688 -22.1807 -22.1807 -22.1008 -22.1007
    -8.4680  -8.3694  -7.1031  -7.0118  -5.9634  -5.5512  -4.7852  -4.6985
    -4.3991  -3.8231   0.2971   0.9135   0.9935   1.1910   1.2915   1.5179
     1.5647   1.8630   2.0893   2.8930   2.9349   2.9927   3.2362   3.3458
     3.4727   3.8183   3.9554   3.9891   4.1075   4.2217   4.2923   4.6401
     4.7399   4.7548   5.9404   5.9641   6.0103   6.2591   6.3569   6.5733
     6.7878   6.9863

          k = 0.0000-0.3869-0.2971 ( 36454 PWs)   bands (ev):

   -44.1611 -44.1611 -22.2688 -22.2688 -22.1807 -22.1807 -22.1008 -22.1008
    -8.4211  -8.4211  -7.0541  -7.0541  -5.7897  -5.7897  -4.7419  -4.7419
    -4.0842  -4.0842   0.5440   0.5440   1.2110   1.2110   1.4009   1.4009
     1.5406   1.5406   2.5810   2.5810   2.9154   2.9154   3.3061   3.3061
     3.8307   3.8307   4.0231   4.0231   4.1160   4.1160   4.3242   4.3242
     4.7142   4.7142   5.9594   5.9594   6.2755   6.2755   6.5261   6.5261
     6.6451   6.6451

          k =-2.0325 0.0000 0.0000 ( 36452 PWs)   bands (ev):

   -44.1611 -44.1611 -22.2688 -22.2688 -22.1807 -22.1807 -22.1008 -22.1007
    -8.4851  -8.3459  -7.1242  -6.9943  -6.0320  -5.4098  -4.8087  -4.6765
    -4.5726  -3.7221   0.2182   0.8641   1.2482   1.2714   1.2871   1.5086
     1.5748   1.7497   2.2352   2.8911   2.9460   2.9721   3.1147   3.2199
     3.3564   3.8928   3.9127   3.9320   4.0233   4.1197   4.4202   4.5470
     4.7665   5.0484   5.7293   6.0100   6.0489   6.1894   6.2506   6.7122
     6.8504   7.1824

          k =-2.0325 0.0000 0.1485 ( 36456 PWs)   bands (ev):

   -44.1611 -44.1611 -22.2688 -22.2688 -22.1807 -22.1807 -22.1008 -22.1007
    -8.4669  -8.3689  -7.1016  -7.0104  -5.9699  -5.5548  -4.7897  -4.6962
    -4.3990  -3.8232   0.3038   0.9261   0.9985   1.2848   1.3035   1.5176
     1.5644   1.8680   2.1163   2.9007   2.9393   2.9949   3.1385   3.2555
     3.4115   3.9210   3.9634   3.9775   4.0631   4.1111   4.2853   4.6340
     4.7389   4.7532   5.9678   5.9788   6.0229   6.2695   6.3641   6.5778
     6.7353   6.9877

          k =-2.0325 0.0000-0.2971 ( 36460 PWs)   bands (ev):

   -44.1611 -44.1611 -22.2688 -22.2688 -22.1807 -22.1807 -22.1008 -22.1008
    -8.4204  -8.4204  -7.0529  -7.0529  -5.7946  -5.7946  -4.7433  -4.7433
    -4.0839  -4.0839   0.5527   0.5527   1.2594   1.2594   1.4136   1.4136
     1.5403   1.5403   2.6021   2.6021   2.9215   2.9215   3.1764   3.1764
     3.8611   3.8611   4.0043   4.0043   4.1059   4.1059   4.2919   4.2919
     4.7115   4.7115   5.9702   5.9702   6.2990   6.2990   6.4907   6.4907
     6.6493   6.6493

     the Fermi energy is     5.3529 ev

!    total energy              =   -4240.91116136 Ry

     total all-electron energy =   -150287.604856 Ry
     estimated scf accuracy    <          1.9E-11 Ry
     smearing contrib. (-TS)   =       0.00000000 Ry
     internal energy E=F+TS    =   -4240.91116136 Ry

     The total energy is F=E-TS. E is the sum of the following terms:
     one-electron contribution =    -169.29925663 Ry
     hartree contribution      =     118.08500526 Ry
     xc contribution           =    -201.67304473 Ry
     ewald contribution        =    -220.47159488 Ry
     one-center paw contrib.   =   -3767.55227038 Ry

     convergence has been achieved in  17 iterations

     Forces acting on atoms (cartesian axes, Ry/au):

     atom    1 type  1   force =     0.00000000    0.02509625    0.00000000
     atom    2 type  1   force =     0.00000000   -0.02509625    0.00000000
     atom    3 type  2   force =     0.00000000   -0.00039120    0.00000000
     atom    4 type  2   force =    -0.00000000    0.00039120    0.00000000
     atom    5 type  2   force =     0.00000000   -0.00586536   -0.00427354
     atom    6 type  2   force =     0.00000000    0.00586536    0.00427354
     atom    7 type  2   force =     0.00000000   -0.00586536    0.00427354
     atom    8 type  2   force =     0.00000000    0.00586536   -0.00427354
     atom    9 type  2   force =     0.00000000   -0.04897895   -0.05918063
     atom   10 type  2   force =     0.00000000    0.04897895    0.05918063
     atom   11 type  2   force =     0.00000000   -0.04897895    0.05918063
     atom   12 type  2   force =     0.00000000    0.04897895   -0.05918063

     Total force =     0.158353     Total SCF correction =     0.000006


     Computing stress (Cartesian axis) and pressure

          total   stress  (Ry/bohr**3)                   (kbar)     P=       14.22
   0.00012197   0.00000000   0.00000000           17.94        0.00        0.00
  -0.00000000   0.00004604   0.00000000           -0.00        6.77        0.00
   0.00000000   0.00000000   0.00012190            0.00        0.00       17.93

 
     init_run     :     35.98s CPU     37.14s WALL (       1 calls)
     electrons    :   1654.31s CPU   1672.04s WALL (       1 calls)
     forces       :      7.83s CPU      8.11s WALL (       1 calls)
     stress       :     46.63s CPU     47.33s WALL (       1 calls)

     Called by init_run:
     wfcinit      :     31.06s CPU     31.34s WALL (       1 calls)
     potinit      :      1.48s CPU      1.53s WALL (       1 calls)
     hinit0       :      1.71s CPU      2.23s WALL (       1 calls)

     Called by electrons:
     c_bands      :   1330.49s CPU   1337.81s WALL (      18 calls)
     sum_band     :    290.43s CPU    296.48s WALL (      18 calls)
     v_of_rho     :      8.24s CPU      8.84s WALL (      18 calls)
     newd         :     18.14s CPU     22.13s WALL (      18 calls)
     PAW_pot      :      6.62s CPU      6.63s WALL (      18 calls)
     mix_rho      :      1.53s CPU      1.57s WALL (      18 calls)

     Called by c_bands:
     init_us_2    :     13.71s CPU     13.77s WALL (    2457 calls)
     cegterg      :   1253.50s CPU   1260.17s WALL (    1134 calls)

     Called by *egterg:
     cdiaghg      :     26.69s CPU     26.81s WALL (    7590 calls)
     h_psi        :   1084.65s CPU   1091.07s WALL (    7716 calls)
     s_psi        :     48.92s CPU     49.00s WALL (    7716 calls)
     g_psi        :      2.11s CPU      2.12s WALL (    6519 calls)

     Called by h_psi:
     h_psi:calbec :     41.58s CPU     41.68s WALL (    7716 calls)
     vloc_psi     :    990.61s CPU    996.77s WALL (    7716 calls)
     add_vuspsi   :     48.58s CPU     48.68s WALL (    7716 calls)

     General routines
     calbec       :     56.30s CPU     56.44s WALL (    9165 calls)
     fft          :      7.64s CPU      8.24s WALL (     258 calls)
     ffts         :      0.20s CPU      0.20s WALL (      36 calls)
     fftw         :    998.98s CPU   1005.07s WALL (  404308 calls)
     interpolate  :      0.66s CPU      0.67s WALL (      18 calls)
 
     Parallel routines
     fft_scatt_xy :    261.64s CPU    263.25s WALL (  404602 calls)
     fft_scatt_yz :    204.73s CPU    206.31s WALL (  404602 calls)
 
     PWSCF        :  29m 5.84s CPU  29m30.81s WALL

 
   This run was terminated on:  15:15:48  19Nov2021            

=------------------------------------------------------------------------------=
   JOB DONE.
=------------------------------------------------------------------------------=
