
     Program PWSCF v.6.7MaX starts on 19Nov2021 at 14:46:17 

     This program is part of the open-source Quantum ESPRESSO suite
     for quantum simulation of materials; please cite
         "P. Giannozzi et al., J. Phys.:Condens. Matter 21 395502 (2009);
         "P. Giannozzi et al., J. Phys.:Condens. Matter 29 465901 (2017);
          URL http://www.quantum-espresso.org", 
     in publications or presentations arising from this work. More details at
     http://www.quantum-espresso.org/quote

     Parallel version (MPI), running on    10 processors

     MPI processes distributed on     1 nodes
     R & G space division:  proc/nbgrp/npool/nimage =      10
     Waiting for input...
     Reading input from standard input

     Current dimensions of program PWSCF are:
     Max number of different atomic species (ntypx) = 10
     Max number of k-points (npk) =  40000
     Max angular momentum in pseudopotentials (lmaxx) =  3
     file Zr.pbe-spn-kjpaw_psl.1.0.0.UPF: wavefunction(s)  4S 4P renormalized
     file Te.pbe-n-kjpaw_psl.1.0.0.UPF: wavefunction(s)  5S 5P renormalized

     Subspace diagonalization in iterative solution of the eigenvalue problem:
     a serial algorithm will be used

     Message from routine setup:
     using ibrav=0 with symmetry is DISCOURAGED, use correct ibrav instead
 
     Parallelization info
     --------------------
     sticks:   dense  smooth     PW     G-vecs:    dense   smooth      PW
     Min         734     293     87               115340    29174    4753
     Max         735     295     88               115345    29176    4760
     Sum        7345    2937    873              1153415   291749   47557
 


     bravais-lattice index     =            0
     lattice parameter (alat)  =      15.5510  a.u.
     unit-cell volume          =    3018.5011 (a.u.)^3
     number of atoms/cell      =           12
     number of atomic types    =            2
     number of electrons       =        84.00
     number of Kohn-Sham states=           50
     kinetic-energy cutoff     =      80.0000  Ry
     charge density cutoff     =     800.0000  Ry
     scf convergence threshold =      1.0E-10
     mixing beta               =       0.7000
     number of iterations used =            8  plain     mixing
     Exchange-correlation= SLA  PW   PBX  PBC
                           (   1   4   3   4   0   0   0)

     celldm(1)=  15.551040  celldm(2)=   0.000000  celldm(3)=   0.000000
     celldm(4)=   0.000000  celldm(5)=   0.000000  celldm(6)=   0.000000

     crystal axes: (cart. coord. in units of alat)
               a(1) = (   0.246007  -0.969268   0.000000 )  
               a(2) = (   0.246007   0.969268   0.000000 )  
               a(3) = (   0.000000   0.000000   1.683031 )  

     reciprocal axes: (cart. coord. in units 2 pi/alat)
               b(1) = (  2.032465 -0.515853  0.000000 )  
               b(2) = (  2.032465  0.515853  0.000000 )  
               b(3) = (  0.000000  0.000000  0.594166 )  


     PseudoPot. # 1 for Zr read from file:
     pseudo/Zr.pbe-spn-kjpaw_psl.1.0.0.UPF
     MD5 check sum: 02112c41713a0468aff2bb39ef194e36
     Pseudo is Projector augmented-wave + core cor, Zval = 12.0
     Generated using &quot;atomic&quot; code by A. Dal Corso  v.6.2.2
     Shape of augmentation charge: PSQ
     Using radial grid of 1225 points,  6 beta functions with: 
                l(1) =   0
                l(2) =   0
                l(3) =   1
                l(4) =   1
                l(5) =   2
                l(6) =   2
     Q(r) pseudized with 0 coefficients 


     PseudoPot. # 2 for Te read from file:
     pseudo/Te.pbe-n-kjpaw_psl.1.0.0.UPF
     MD5 check sum: 66247bff2bd9dbf220fbb0bf5ab56e9d
     Pseudo is Projector augmented-wave + core cor, Zval =  6.0
     Generated using &quot;atomic&quot; code by A. Dal Corso  v.6.3
     Shape of augmentation charge: PSQ
     Using radial grid of 1245 points,  6 beta functions with: 
                l(1) =   0
                l(2) =   0
                l(3) =   1
                l(4) =   1
                l(5) =   2
                l(6) =   2
     Q(r) pseudized with 0 coefficients 


     atomic species   valence    mass     pseudopotential
        Zr            12.00    91.22000     Zr( 1.00)
        Te             6.00   127.60000     Te( 1.00)

      8 Sym. Ops., with inversion, found ( 4 have fractional translation)



   Cartesian axes

     site n.     atom                  positions (alat units)
         1           Zr  tau(   1) = (   0.0000000   0.5985099   0.4207578  )
         2           Zr  tau(   2) = (   0.2460067   0.3707582   1.2622733  )
         3           Te  tau(   3) = (   0.2460067   0.3341058   0.4207578  )
         4           Te  tau(   4) = (   0.0000000   0.6351624   1.2622733  )
         5           Te  tau(   5) = (   0.2460067   0.8130566   0.2542687  )
         6           Te  tau(   6) = (   0.0000000   0.1562115   1.4287624  )
         7           Te  tau(   7) = (   0.2460067   0.8130566   0.5872468  )
         8           Te  tau(   8) = (   0.0000000   0.1562115   1.0957842  )
         9           Te  tau(   9) = (   0.0000000   0.4273257   0.7427452  )
        10           Te  tau(  10) = (   0.2460067   0.5419424   0.9402859  )
        11           Te  tau(  11) = (   0.0000000   0.4273257   0.0987704  )
        12           Te  tau(  12) = (   0.2460067   0.5419424   1.5842607  )

     number of k points=    63  Methfessel-Paxton smearing, width (Ry)=  0.0030
                       cart. coord. in units 2pi/alat
        k(    1) = (   0.0000000   0.0000000   0.0000000), wk =   0.0078125
        k(    2) = (   0.0000000   0.0000000   0.1485415), wk =   0.0156250
        k(    3) = (   0.0000000   0.0000000  -0.2970830), wk =   0.0078125
        k(    4) = (   0.2540581   0.0644816   0.0000000), wk =   0.0312500
        k(    5) = (   0.2540581   0.0644816   0.1485415), wk =   0.0625000
        k(    6) = (   0.2540581   0.0644816  -0.2970830), wk =   0.0312500
        k(    7) = (   0.5081162   0.1289633   0.0000000), wk =   0.0312500
        k(    8) = (   0.5081162   0.1289633   0.1485415), wk =   0.0625000
        k(    9) = (   0.5081162   0.1289633  -0.2970830), wk =   0.0312500
        k(   10) = (   0.7621743   0.1934449   0.0000000), wk =   0.0312500
        k(   11) = (   0.7621743   0.1934449   0.1485415), wk =   0.0625000
        k(   12) = (   0.7621743   0.1934449  -0.2970830), wk =   0.0312500
        k(   13) = (  -1.0162324  -0.2579266   0.0000000), wk =   0.0156250
        k(   14) = (  -1.0162324  -0.2579266   0.1485415), wk =   0.0312500
        k(   15) = (  -1.0162324  -0.2579266  -0.2970830), wk =   0.0156250
        k(   16) = (   0.5081162   0.0000000   0.0000000), wk =   0.0156250
        k(   17) = (   0.5081162   0.0000000   0.1485415), wk =   0.0312500
        k(   18) = (   0.5081162   0.0000000  -0.2970830), wk =   0.0156250
        k(   19) = (   0.7621743   0.0644816   0.0000000), wk =   0.0312500
        k(   20) = (   0.7621743   0.0644816   0.1485415), wk =   0.0625000
        k(   21) = (   0.7621743   0.0644816  -0.2970830), wk =   0.0312500
        k(   22) = (   1.0162324   0.1289633   0.0000000), wk =   0.0312500
        k(   23) = (   1.0162324   0.1289633   0.1485415), wk =   0.0625000
        k(   24) = (   1.0162324   0.1289633  -0.2970830), wk =   0.0312500
        k(   25) = (  -0.7621743  -0.3224082   0.0000000), wk =   0.0312500
        k(   26) = (  -0.7621743  -0.3224082   0.1485415), wk =   0.0625000
        k(   27) = (  -0.7621743  -0.3224082  -0.2970830), wk =   0.0312500
        k(   28) = (  -0.5081162  -0.2579266   0.0000000), wk =   0.0312500
        k(   29) = (  -0.5081162  -0.2579266   0.1485415), wk =   0.0625000
        k(   30) = (  -0.5081162  -0.2579266  -0.2970830), wk =   0.0312500
        k(   31) = (  -0.2540581  -0.1934449   0.0000000), wk =   0.0312500
        k(   32) = (  -0.2540581  -0.1934449   0.1485415), wk =   0.0625000
        k(   33) = (  -0.2540581  -0.1934449  -0.2970830), wk =   0.0312500
        k(   34) = (   0.0000000  -0.1289633   0.0000000), wk =   0.0156250
        k(   35) = (   0.0000000  -0.1289633   0.1485415), wk =   0.0312500
        k(   36) = (   0.0000000  -0.1289633  -0.2970830), wk =   0.0156250
        k(   37) = (   1.0162324   0.0000000   0.0000000), wk =   0.0156250
        k(   38) = (   1.0162324   0.0000000   0.1485415), wk =   0.0312500
        k(   39) = (   1.0162324   0.0000000  -0.2970830), wk =   0.0156250
        k(   40) = (   1.2702905   0.0644816   0.0000000), wk =   0.0312500
        k(   41) = (   1.2702905   0.0644816   0.1485415), wk =   0.0625000
        k(   42) = (   1.2702905   0.0644816  -0.2970830), wk =   0.0312500
        k(   43) = (  -0.5081162  -0.3868899   0.0000000), wk =   0.0312500
        k(   44) = (  -0.5081162  -0.3868899   0.1485415), wk =   0.0625000
        k(   45) = (  -0.5081162  -0.3868899  -0.2970830), wk =   0.0312500
        k(   46) = (  -0.2540581  -0.3224082   0.0000000), wk =   0.0312500
        k(   47) = (  -0.2540581  -0.3224082   0.1485415), wk =   0.0625000
        k(   48) = (  -0.2540581  -0.3224082  -0.2970830), wk =   0.0312500
        k(   49) = (   0.0000000  -0.2579266   0.0000000), wk =   0.0156250
        k(   50) = (   0.0000000  -0.2579266   0.1485415), wk =   0.0312500
        k(   51) = (   0.0000000  -0.2579266  -0.2970830), wk =   0.0156250
        k(   52) = (   1.5243485   0.0000000   0.0000000), wk =   0.0156250
        k(   53) = (   1.5243485   0.0000000   0.1485415), wk =   0.0312500
        k(   54) = (   1.5243485   0.0000000  -0.2970830), wk =   0.0156250
        k(   55) = (  -0.2540581  -0.4513715   0.0000000), wk =   0.0312500
        k(   56) = (  -0.2540581  -0.4513715   0.1485415), wk =   0.0625000
        k(   57) = (  -0.2540581  -0.4513715  -0.2970830), wk =   0.0312500
        k(   58) = (   0.0000000  -0.3868899   0.0000000), wk =   0.0156250
        k(   59) = (   0.0000000  -0.3868899   0.1485415), wk =   0.0312500
        k(   60) = (   0.0000000  -0.3868899  -0.2970830), wk =   0.0156250
        k(   61) = (  -2.0324647   0.0000000   0.0000000), wk =   0.0078125
        k(   62) = (  -2.0324647   0.0000000   0.1485415), wk =   0.0156250
        k(   63) = (  -2.0324647   0.0000000  -0.2970830), wk =   0.0078125

     Dense  grid:  1153415 G-vectors     FFT dimensions: ( 144, 144, 240)

     Smooth grid:   291749 G-vectors     FFT dimensions: (  90,  90, 150)

     Estimated max dynamical RAM per process >     657.19 MB

     Estimated total dynamical RAM >       6.42 GB

     Initial potential from superposition of free atoms

     starting charge   83.99353, renormalised to   84.00000
     Starting wfcs are   66 randomized atomic wfcs
     Checking if some PAW data can be deallocated... 

     total cpu time spent up to now is       42.7 secs

     Self-consistent Calculation

     iteration #  1     ecut=    80.00 Ry     beta= 0.70
     Davidson diagonalization with overlap
     ethr =  1.00E-02,  avg # of iterations =  2.2

     Threshold (ethr) on eigenvalues was too large:
     Diagonalizing with lowered threshold

     Davidson diagonalization with overlap
     ethr =  4.85E-04,  avg # of iterations =  4.0

     total cpu time spent up to now is      203.7 secs

     total energy              =   -4240.68093478 Ry
     estimated scf accuracy    <       0.45943107 Ry

     iteration #  2     ecut=    80.00 Ry     beta= 0.70
     Davidson diagonalization with overlap
     ethr =  5.47E-04,  avg # of iterations =  8.3

     total cpu time spent up to now is      318.3 secs

     total energy              =   -4240.56944858 Ry
     estimated scf accuracy    <       2.08142593 Ry

     iteration #  3     ecut=    80.00 Ry     beta= 0.70
     Davidson diagonalization with overlap
     ethr =  5.47E-04,  avg # of iterations =  5.3

     total cpu time spent up to now is      412.4 secs

     total energy              =   -4240.90395721 Ry
     estimated scf accuracy    <       0.00792081 Ry

     iteration #  4     ecut=    80.00 Ry     beta= 0.70
     Davidson diagonalization with overlap
     c_bands:  1 eigenvalues not converged
     c_bands:  1 eigenvalues not converged
     c_bands:  1 eigenvalues not converged
     c_bands:  1 eigenvalues not converged
     c_bands:  1 eigenvalues not converged
     c_bands:  2 eigenvalues not converged
     c_bands:  2 eigenvalues not converged
     c_bands:  1 eigenvalues not converged
     c_bands:  1 eigenvalues not converged
     c_bands:  1 eigenvalues not converged
     c_bands:  4 eigenvalues not converged
     c_bands:  2 eigenvalues not converged
     c_bands:  2 eigenvalues not converged
     c_bands:  1 eigenvalues not converged
     c_bands:  1 eigenvalues not converged
     c_bands:  2 eigenvalues not converged
     c_bands:  1 eigenvalues not converged
     c_bands:  4 eigenvalues not converged
     c_bands:  1 eigenvalues not converged
     c_bands:  1 eigenvalues not converged
     ethr =  9.43E-06,  avg # of iterations = 17.2

     total cpu time spent up to now is      588.6 secs

     total energy              =   -4240.91291454 Ry
     estimated scf accuracy    <       0.03797403 Ry

     iteration #  5     ecut=    80.00 Ry     beta= 0.70
     Davidson diagonalization with overlap
     ethr =  9.43E-06,  avg # of iterations =  6.7

     total cpu time spent up to now is      680.9 secs

     total energy              =   -4240.91485915 Ry
     estimated scf accuracy    <       0.00623136 Ry

     iteration #  6     ecut=    80.00 Ry     beta= 0.70
     Davidson diagonalization with overlap
     ethr =  7.42E-06,  avg # of iterations =  3.6

     total cpu time spent up to now is      757.8 secs

     total energy              =   -4240.91533505 Ry
     estimated scf accuracy    <       0.00109572 Ry

     iteration #  7     ecut=    80.00 Ry     beta= 0.70
     Davidson diagonalization with overlap
     ethr =  1.30E-06,  avg # of iterations =  8.9

     total cpu time spent up to now is      868.5 secs

     total energy              =   -4240.91579411 Ry
     estimated scf accuracy    <       0.00070977 Ry

     iteration #  8     ecut=    80.00 Ry     beta= 0.70
     Davidson diagonalization with overlap
     ethr =  8.45E-07,  avg # of iterations =  2.1

     total cpu time spent up to now is      938.1 secs

     total energy              =   -4240.91581798 Ry
     estimated scf accuracy    <       0.00010663 Ry

     iteration #  9     ecut=    80.00 Ry     beta= 0.70
     Davidson diagonalization with overlap
     ethr =  1.27E-07,  avg # of iterations =  6.3

     total cpu time spent up to now is     1027.9 secs

     total energy              =   -4240.91585166 Ry
     estimated scf accuracy    <       0.00000880 Ry

     iteration # 10     ecut=    80.00 Ry     beta= 0.70
     Davidson diagonalization with overlap
     ethr =  1.05E-08,  avg # of iterations =  5.2

     total cpu time spent up to now is     1113.1 secs

     total energy              =   -4240.91585446 Ry
     estimated scf accuracy    <       0.00000068 Ry

     iteration # 11     ecut=    80.00 Ry     beta= 0.70
     Davidson diagonalization with overlap
     ethr =  8.11E-10,  avg # of iterations =  6.5

     total cpu time spent up to now is     1210.7 secs

     total energy              =   -4240.91585486 Ry
     estimated scf accuracy    <       0.00000008 Ry

     iteration # 12     ecut=    80.00 Ry     beta= 0.70
     Davidson diagonalization with overlap
     ethr =  1.00E-10,  avg # of iterations =  4.6

     total cpu time spent up to now is     1291.9 secs

     total energy              =   -4240.91585488 Ry
     estimated scf accuracy    <          3.6E-09 Ry

     iteration # 13     ecut=    80.00 Ry     beta= 0.70
     Davidson diagonalization with overlap
     ethr =  4.31E-12,  avg # of iterations =  8.7

     total cpu time spent up to now is     1415.1 secs

     total energy              =   -4240.91585488 Ry
     estimated scf accuracy    <          8.8E-09 Ry

     iteration # 14     ecut=    80.00 Ry     beta= 0.70
     Davidson diagonalization with overlap
     ethr =  4.31E-12,  avg # of iterations =  4.3

     total cpu time spent up to now is     1496.3 secs

     total energy              =   -4240.91585488 Ry
     estimated scf accuracy    <          1.3E-10 Ry

     iteration # 15     ecut=    80.00 Ry     beta= 0.70
     Davidson diagonalization with overlap
     ethr =  1.59E-13,  avg # of iterations =  9.3

     total cpu time spent up to now is     1629.5 secs

     total energy              =   -4240.91585488 Ry
     estimated scf accuracy    <          5.5E-10 Ry

     iteration # 16     ecut=    80.00 Ry     beta= 0.70
     Davidson diagonalization with overlap
     ethr =  1.59E-13,  avg # of iterations =  2.3

     total cpu time spent up to now is     1701.5 secs

     total energy              =   -4240.91585488 Ry
     estimated scf accuracy    <          1.5E-10 Ry

     iteration # 17     ecut=    80.00 Ry     beta= 0.70
     Davidson diagonalization with overlap
     ethr =  1.59E-13,  avg # of iterations =  6.0

     total cpu time spent up to now is     1770.1 secs

     End of self-consistent calculation

          k = 0.0000 0.0000 0.0000 ( 36359 PWs)   bands (ev):

   -44.1590 -44.1590 -22.2676 -22.2676 -22.1793 -22.1793 -22.0982 -22.0980
    -8.4517  -8.2996  -7.1366  -6.9966  -5.9987  -5.3895  -4.7658  -4.7171
    -4.5920  -3.7283   0.1617   0.8343   0.8569   1.1770   1.1937   1.5251
     1.5618   1.6340   2.2571   2.8354   2.9177   2.9495   3.1742   3.4329
     3.9233   4.0030   4.1256   4.1402   4.3383   4.4091   4.5346   4.6486
     4.7709   5.1448   5.6142   5.8137   5.8394   5.9539   6.1736   6.6239
     7.1686   7.2734

          k = 0.0000 0.0000 0.1485 ( 36415 PWs)   bands (ev):

   -44.1590 -44.1590 -22.2676 -22.2676 -22.1793 -22.1793 -22.0982 -22.0981
    -8.4322  -8.3253  -7.1108  -7.0126  -5.9407  -5.5372  -4.7550  -4.7234
    -4.4168  -3.8315   0.2421   0.8279   0.9166   0.9652   1.1356   1.5716
     1.6225   1.8355   1.9845   2.8490   2.9071   2.9651   3.3504   3.5131
     3.8489   4.0462   4.1043   4.1456   4.3207   4.3951   4.5207   4.6828
     4.7596   4.7725   5.8014   5.8373   5.8407   6.2249   6.2994   6.5050
     6.9666   7.0734

          k = 0.0000 0.0000-0.2971 ( 36410 PWs)   bands (ev):

   -44.1590 -44.1590 -22.2676 -22.2676 -22.1793 -22.1793 -22.0981 -22.0981
    -8.3817  -8.3817  -7.0569  -7.0569  -5.7734  -5.7734  -4.7386  -4.7386
    -4.0969  -4.0969   0.4763   0.4763   1.0007   1.0007   1.3631   1.3631
     1.5962   1.5962   2.5012   2.5012   2.8796   2.8796   3.6552   3.6552
     3.9252   3.9252   4.1656   4.1656   4.2695   4.2695   4.4955   4.4955
     4.7285   4.7285   5.8238   5.8238   6.1829   6.1829   6.6082   6.6082
     6.6760   6.6760

          k = 0.2541 0.0645 0.0000 ( 36396 PWs)   bands (ev):

   -44.1586 -44.1586 -22.2657 -22.2657 -22.1888 -22.1888 -22.0972 -22.0970
    -8.3221  -8.1715  -7.0741  -6.9466  -5.9421  -5.3409  -4.7228  -4.6751
    -4.6592  -3.9310   0.2332   0.6737   0.9390   0.9786   1.1724   1.3457
     1.3781   1.5530   1.7502   2.6072   2.6430   3.1471   3.3510   3.6870
     3.7728   3.8135   3.9119   3.9516   4.1037   4.2943   4.3404   4.4499
     4.5016   4.6436   5.9852   5.9899   6.1330   6.2988   6.3985   6.7657
     7.0692   7.2596

          k = 0.2541 0.0645 0.1485 ( 36423 PWs)   bands (ev):

   -44.1586 -44.1586 -22.2657 -22.2657 -22.1888 -22.1888 -22.0971 -22.0970
    -8.3028  -8.1969  -7.0505  -6.9612  -5.8842  -5.4869  -4.7151  -4.6785
    -4.5007  -4.0108   0.3015   0.6291   0.8588   1.0133   1.0532   1.2154
     1.4278   1.7107   2.0150   2.6103   2.6267   2.9234   3.4397   3.4754
     3.5161   3.8845   3.9867   4.0652   4.0845   4.2527   4.4439   4.5041
     4.6281   4.7445   5.8998   6.0008   6.1054   6.1917   6.2236   6.8515
     7.2104   7.2233

          k = 0.2541 0.0645-0.2971 ( 36436 PWs)   bands (ev):

   -44.1586 -44.1586 -22.2657 -22.2657 -22.1888 -22.1888 -22.0971 -22.0971
    -8.2528  -8.2528  -7.0015  -7.0015  -5.7187  -5.7187  -4.6968  -4.6968
    -4.2253  -4.2253   0.4774   0.4774   0.8432   0.8432   1.1221   1.1221
     1.6416   1.6416   2.4756   2.4756   2.6448   2.6448   3.3105   3.3105
     3.7089   3.7089   4.0394   4.0394   4.2006   4.2006   4.4821   4.4821
     4.8763   4.8763   5.7754   5.7754   6.1219   6.1219   6.5025   6.5025
     7.3388   7.3388

          k = 0.5081 0.1290 0.0000 ( 36499 PWs)   bands (ev):

   -44.1578 -44.1578 -22.2610 -22.2610 -22.2115 -22.2115 -22.0946 -22.0945
    -7.9407  -7.7938  -6.9242  -6.8239  -5.7873  -5.2178  -4.9736  -4.6026
    -4.5557  -4.5147  -0.1719   0.3155   0.7375   0.8169   1.1630   1.3194
     1.6373   1.6815   1.7235   2.0699   2.1369   2.4717   2.6311   3.4358
     3.4491   3.5553   3.5940   3.7451   3.7588   3.8565   4.0305   4.2632
     4.2904   4.7912   5.9779   6.2195   6.3355   6.6143   6.6679   7.1059
     7.4013   7.5393

          k = 0.5081 0.1290 0.1485 ( 36476 PWs)   bands (ev):

   -44.1578 -44.1578 -22.2610 -22.2610 -22.2115 -22.2115 -22.0946 -22.0945
    -7.9220  -7.8187  -6.9057  -6.8355  -5.7329  -5.3706  -4.8485  -4.6042
    -4.5819  -4.5126  -0.1115   0.2557   0.7631   0.8139   1.1407   1.2237
     1.4057   1.5929   1.9993   2.0880   2.2762   2.5395   2.9011   3.3197
     3.4583   3.4972   3.5560   3.7249   3.7842   3.8105   3.9114   4.2723
     4.3139   4.4571   6.2897   6.3539   6.4660   6.6135   6.7406   6.9837
     7.2644   7.5262

          k = 0.5081 0.1290-0.2971 ( 36466 PWs)   bands (ev):

   -44.1578 -44.1578 -22.2610 -22.2610 -22.2115 -22.2115 -22.0945 -22.0945
    -7.8734  -7.8734  -6.8672  -6.8672  -5.5813  -5.5813  -4.7028  -4.7028
    -4.5409  -4.5409   0.0590   0.0590   0.9072   0.9072   0.9846   0.9846
     1.4810   1.4810   2.0559   2.0559   2.6295   2.6295   3.1874   3.1874
     3.3816   3.3816   3.5989   3.5989   3.7803   3.7803   3.9604   3.9604
     4.3590   4.3590   6.5168   6.5168   6.5750   6.5750   6.8988   6.8988
     7.3021   7.3021

          k = 0.7622 0.1934 0.0000 ( 36521 PWs)   bands (ev):

   -44.1569 -44.1569 -22.2563 -22.2563 -22.2341 -22.2341 -22.0920 -22.0920
    -7.3405  -7.1902  -6.7824  -6.6885  -5.7513  -5.6059  -5.1576  -5.1061
    -4.4738  -4.4348  -0.3373   0.0281   0.0620   0.8774   0.8977   1.3134
     1.4925   1.5931   2.0218   2.1172   2.2246   2.3088   2.4761   2.8203
     3.0304   3.2021   3.3523   3.4242   3.5362   3.6606   3.7084   3.7657
     3.9104   4.5995   6.3076   6.5106   6.6442   6.9795   6.9999   7.0511
     7.4097   7.6193

          k = 0.7622 0.1934 0.1485 ( 36503 PWs)   bands (ev):

   -44.1569 -44.1569 -22.2563 -22.2563 -22.2341 -22.2341 -22.0920 -22.0920
    -7.3222  -7.2173  -6.7643  -6.6993  -5.7265  -5.6230  -5.1546  -5.1192
    -4.4668  -4.4395  -0.2989  -0.0212   0.1434   0.7441   0.9318   1.2552
     1.5002   1.5889   1.9847   2.0191   2.1956   2.5483   2.7179   2.9088
     2.9745   3.0136   3.2728   3.3255   3.5052   3.5933   3.7969   3.9297
     4.0005   4.4647   6.1510   6.4847   6.7907   6.9466   7.0578   7.1433
     7.2313   7.6734

          k = 0.7622 0.1934-0.2971 ( 36522 PWs)   bands (ev):

   -44.1569 -44.1569 -22.2563 -22.2563 -22.2341 -22.2341 -22.0920 -22.0920
    -7.2740  -7.2740  -6.7284  -6.7284  -5.6710  -5.6710  -5.1419  -5.1419
    -4.4520  -4.4520  -0.1795  -0.1795   0.4269   0.4269   1.0731   1.0731
     1.5520   1.5520   1.9772   1.9772   2.4682   2.4682   2.8570   2.8570
     2.9439   2.9439   3.2512   3.2512   3.5887   3.5887   3.9691   3.9691
     4.1023   4.1023   6.4801   6.4801   6.5697   6.5697   7.0930   7.0930
     7.6101   7.6101

          k =-1.0162-0.2579 0.0000 ( 36506 PWs)   bands (ev):

   -44.1565 -44.1565 -22.2543 -22.2543 -22.2435 -22.2435 -22.0909 -22.0909
    -6.7947  -6.7728  -6.4200  -6.4165  -6.4128  -6.4003  -5.1335  -5.1330
    -4.4151  -4.3837  -0.1983  -0.1811   0.1045   0.1255   1.0134   1.0200
     1.4666   1.6541   2.1941   2.3496   2.3815   2.4096   2.7750   2.8487
     2.8684   2.9201   3.1692   3.2112   3.2786   3.3348   3.4276   3.5878
     4.0406   4.2839   6.7237   6.7883   6.9129   6.9253   7.1464   7.2458
     7.2459   7.3226

          k =-1.0162-0.2579 0.1485 ( 36506 PWs)   bands (ev):

   -44.1565 -44.1565 -22.2543 -22.2543 -22.2435 -22.2435 -22.0909 -22.0909
    -6.7883  -6.7723  -6.4620  -6.4552  -6.3718  -6.3670  -5.1322  -5.1318
    -4.4123  -4.3902  -0.2860  -0.2806   0.2759   0.2843   1.0098   1.0169
     1.4574   1.5865   2.0963   2.2458   2.3187   2.3871   2.6193   2.6530
     2.9190   3.0041   3.1317   3.2279   3.4720   3.5326   3.5807   3.6699
     4.1488   4.2958   6.3919   6.4144   6.6237   6.7014   7.2597   7.2642
     7.4918   7.5617

          k =-1.0162-0.2579-0.2971 ( 36528 PWs)   bands (ev):

   -44.1565 -44.1565 -22.2543 -22.2543 -22.2435 -22.2435 -22.0909 -22.0909
    -6.7767  -6.7767  -6.4788  -6.4788  -6.3526  -6.3526  -5.1308  -5.1308
    -4.4032  -4.4032  -0.3420  -0.3420   0.4303   0.4303   0.9891   0.9891
     1.4968   1.4968   2.0051   2.0051   2.3307   2.3307   2.7455   2.7455
     2.7830   2.7830   3.2208   3.2208   3.6138   3.6138   3.7545   3.7545
     4.3254   4.3254   6.0712   6.0712   6.5615   6.5615   7.2720   7.2720
     7.6371   7.6371

          k = 0.5081 0.0000 0.0000 ( 36503 PWs)   bands (ev):

   -44.1578 -44.1578 -22.2610 -22.2610 -22.2115 -22.2115 -22.0946 -22.0945
    -7.9421  -7.7941  -6.9243  -6.8237  -5.7845  -5.2169  -4.9715  -4.5954
    -4.5641  -4.5142  -0.1678   0.3083   0.7412   0.8262   1.1595   1.2809
     1.6324   1.6689   1.7086   2.0770   2.1324   2.4613   2.6357   3.4405
     3.4510   3.5887   3.6065   3.7252   3.7720   3.9024   4.0086   4.2943
     4.2997   4.7789   5.9845   6.1946   6.3650   6.5784   6.6155   7.1458
     7.4045   7.5692

          k = 0.5081 0.0000 0.1485 ( 36453 PWs)   bands (ev):

   -44.1578 -44.1578 -22.2610 -22.2610 -22.2115 -22.2115 -22.0946 -22.0945
    -7.9233  -7.8192  -6.9055  -6.8352  -5.7305  -5.3696  -4.8456  -4.6045
    -4.5796  -4.5159  -0.1084   0.2506   0.7726   0.8121   1.1465   1.2116
     1.3673   1.5712   1.9993   2.1053   2.2578   2.5298   2.9041   3.3325
     3.4819   3.4860   3.5690   3.7522   3.7703   3.8651   3.8713   4.2990
     4.3411   4.4350   6.2752   6.3619   6.4845   6.5721   6.7027   7.0187
     7.2743   7.5470

          k = 0.5081 0.0000-0.2971 ( 36452 PWs)   bands (ev):

   -44.1578 -44.1578 -22.2610 -22.2610 -22.2115 -22.2115 -22.0945 -22.0945
    -7.8743  -7.8743  -6.8668  -6.8668  -5.5797  -5.5797  -4.6999  -4.6999
    -4.5430  -4.5430   0.0593   0.0593   0.9049   0.9049   0.9884   0.9884
     1.4483   1.4483   2.0610   2.0610   2.6179   2.6179   3.1965   3.1965
     3.3915   3.3915   3.5994   3.5994   3.8126   3.8126   3.9425   3.9425
     4.3757   4.3757   6.5266   6.5266   6.5432   6.5432   6.9161   6.9161
     7.3057   7.3057

          k = 0.7622 0.0645 0.0000 ( 36505 PWs)   bands (ev):

   -44.1569 -44.1569 -22.2563 -22.2563 -22.2341 -22.2341 -22.0920 -22.0920
    -7.3440  -7.1908  -6.7795  -6.6870  -5.7519  -5.6042  -5.1564  -5.1064
    -4.4620  -4.4472  -0.3294   0.0284   0.0678   0.8686   0.9264   1.3262
     1.4662   1.5530   1.9853   2.1032   2.2606   2.3287   2.4225   2.7960
     3.0222   3.2403   3.3567   3.4348   3.6021   3.6863   3.7130   3.7345
     3.8516   4.6166   6.3055   6.4792   6.6746   6.9740   7.0102   7.0330
     7.4127   7.6698

          k = 0.7622 0.0645 0.1485 ( 36509 PWs)   bands (ev):

   -44.1569 -44.1569 -22.2563 -22.2563 -22.2341 -22.2341 -22.0920 -22.0920
    -7.3254  -7.2187  -6.7613  -6.6973  -5.7271  -5.6220  -5.1535  -5.1192
    -4.4585  -4.4482  -0.2910  -0.0134   0.1401   0.7350   0.9575   1.2669
     1.4746   1.5839   1.9575   1.9668   2.1979   2.5449   2.7214   2.8968
     2.9761   3.0107   3.3062   3.3284   3.5473   3.5825   3.7805   3.9641
     3.9697   4.4553   6.1756   6.4600   6.8107   6.9454   7.0348   7.1745
     7.2088   7.7087

          k = 0.7622 0.0645-0.2971 ( 36472 PWs)   bands (ev):

   -44.1569 -44.1569 -22.2563 -22.2563 -22.2341 -22.2341 -22.0920 -22.0920
    -7.2764  -7.2764  -6.7256  -6.7256  -5.6710  -5.6710  -5.1412  -5.1412
    -4.4521  -4.4521  -0.1718  -0.1718   0.4211   0.4211   1.0904   1.0904
     1.5480   1.5480   1.9245   1.9245   2.4743   2.4743   2.8619   2.8619
     2.9184   2.9184   3.2957   3.2957   3.5854   3.5854   4.0043   4.0043
     4.0576   4.0576   6.5099   6.5099   6.5663   6.5663   7.0646   7.0646
     7.6378   7.6378

          k = 1.0162 0.1290 0.0000 ( 36514 PWs)   bands (ev):

   -44.1565 -44.1565 -22.2543 -22.2543 -22.2435 -22.2435 -22.0909 -22.0909
    -6.7947  -6.7728  -6.4200  -6.4165  -6.4127  -6.4004  -5.1335  -5.1330
    -4.4151  -4.3837  -0.2039  -0.1754   0.1024   0.1276   1.0042   1.0298
     1.4741   1.6433   2.1896   2.3572   2.3899   2.4001   2.7537   2.8740
     2.8872   2.9113   3.1685   3.1908   3.2848   3.3195   3.4509   3.5832
     4.0220   4.3025   6.7167   6.7999   6.8912   6.9467   7.1729   7.2455
     7.2480   7.2981

          k = 1.0162 0.1290 0.1485 ( 36524 PWs)   bands (ev):

   -44.1565 -44.1565 -22.2543 -22.2543 -22.2435 -22.2435 -22.0909 -22.0909
    -6.7883  -6.7723  -6.4620  -6.4552  -6.3718  -6.3670  -5.1322  -5.1318
    -4.4123  -4.3902  -0.2885  -0.2783   0.2769   0.2837   1.0063   1.0205
     1.4643   1.5792   2.1011   2.2306   2.3227   2.3893   2.6125   2.6672
     2.9075   3.0177   3.1332   3.2215   3.4784   3.5021   3.6131   3.6637
     4.1285   4.3154   6.3888   6.4243   6.6198   6.7032   7.2611   7.2644
     7.5005   7.5529

          k = 1.0162 0.1290-0.2971 ( 36516 PWs)   bands (ev):

   -44.1565 -44.1565 -22.2543 -22.2543 -22.2435 -22.2435 -22.0909 -22.0909
    -6.7767  -6.7767  -6.4788  -6.4788  -6.3526  -6.3526  -5.1308  -5.1308
    -4.4032  -4.4032  -0.3421  -0.3421   0.4306   0.4306   0.9888   0.9888
     1.4981   1.4981   2.0052   2.0052   2.3270   2.3270   2.7231   2.7231
     2.8121   2.8121   3.2150   3.2150   3.6154   3.6154   3.7542   3.7542
     4.3262   4.3262   6.0744   6.0744   6.5605   6.5605   7.2726   7.2726
     7.6368   7.6368

          k =-0.7622-0.3224 0.0000 ( 36511 PWs)   bands (ev):

   -44.1569 -44.1569 -22.2563 -22.2563 -22.2341 -22.2341 -22.0920 -22.0920
    -7.3355  -7.1892  -6.7868  -6.6903  -5.7504  -5.6083  -5.1594  -5.1057
    -4.4828  -4.4250  -0.3483   0.0291   0.0524   0.8650   0.8897   1.2979
     1.5022   1.6664   2.0929   2.1398   2.2093   2.2791   2.4783   2.8584
     3.0375   3.1852   3.3421   3.4135   3.5066   3.6154   3.6933   3.7031
     4.0461   4.5685   6.3103   6.5524   6.6192   6.9011   7.0381   7.1218
     7.3946   7.5504

          k =-0.7622-0.3224 0.1485 ( 36492 PWs)   bands (ev):

   -44.1569 -44.1569 -22.2563 -22.2563 -22.2341 -22.2341 -22.0920 -22.0920
    -7.3176  -7.2155  -6.7688  -6.7019  -5.7257  -5.6245  -5.1561  -5.1193
    -4.4731  -4.4326  -0.3099  -0.0317   0.1472   0.7569   0.9017   1.2388
     1.5236   1.6052   2.0231   2.0947   2.2018   2.5472   2.6876   2.9324
     2.9717   3.0397   3.2477   3.2989   3.4745   3.5762   3.7926   3.8797
     4.0721   4.4761   6.1192   6.5232   6.7561   6.9445   7.0687   7.1538
     7.2532   7.6023

          k =-0.7622-0.3224-0.2971 ( 36508 PWs)   bands (ev):

   -44.1569 -44.1569 -22.2563 -22.2563 -22.2341 -22.2341 -22.0920 -22.0920
    -7.2705  -7.2705  -6.7324  -6.7324  -5.6709  -5.6709  -5.1429  -5.1429
    -4.4519  -4.4519  -0.1901  -0.1901   0.4348   0.4348   1.0522   1.0522
     1.5592   1.5592   2.0440   2.0440   2.4687   2.4687   2.8528   2.8528
     2.9771   2.9771   3.1911   3.1911   3.5861   3.5861   3.9214   3.9214
     4.1635   4.1635   6.4454   6.4454   6.5697   6.5697   7.1375   7.1375
     7.5499   7.5499

          k =-0.5081-0.2579 0.0000 ( 36480 PWs)   bands (ev):

   -44.1578 -44.1578 -22.2610 -22.2610 -22.2115 -22.2115 -22.0946 -22.0945
    -7.9374  -7.7930  -6.9244  -6.8240  -5.7942  -5.2198  -4.9788  -4.6131
    -4.5425  -4.5159  -0.1815   0.3328   0.7302   0.7950   1.1714   1.4188
     1.6463   1.7125   1.7676   2.0566   2.1370   2.4935   2.6181   3.3680
     3.4745   3.5139   3.5847   3.6944   3.7689   3.7727   4.0922   4.1730
     4.2792   4.8176   5.9646   6.2479   6.2978   6.7059   6.7951   7.0143
     7.3898   7.4743

          k =-0.5081-0.2579 0.1485 ( 36485 PWs)   bands (ev):

   -44.1578 -44.1578 -22.2610 -22.2610 -22.2115 -22.2115 -22.0946 -22.0945
    -7.9190  -7.8174  -6.9063  -6.8360  -5.7388  -5.3731  -4.8553  -4.6037
    -4.5866  -4.5056  -0.1189   0.2676   0.7475   0.8105   1.1344   1.2489
     1.5037   1.6540   1.9870   2.0600   2.3122   2.5590   2.8925   3.2705
     3.4246   3.5094   3.5343   3.6759   3.7236   3.7816   3.9882   4.1970
     4.2757   4.4926   6.3182   6.3262   6.4372   6.7057   6.8393   6.9109
     7.2332   7.4829

          k =-0.5081-0.2579-0.2971 ( 36478 PWs)   bands (ev):

   -44.1578 -44.1578 -22.2610 -22.2610 -22.2115 -22.2115 -22.0945 -22.0945
    -7.8711  -7.8711  -6.8681  -6.8681  -5.5852  -5.5852  -4.7096  -4.7096
    -4.5362  -4.5362   0.0583   0.0583   0.9128   0.9128   0.9757   0.9757
     1.5683   1.5683   2.0374   2.0374   2.6641   2.6641   3.1460   3.1460
     3.3632   3.3632   3.5909   3.5909   3.7195   3.7195   3.9979   3.9979
     4.3219   4.3219   6.4860   6.4860   6.6526   6.6526   6.8602   6.8602
     7.3002   7.3002

          k =-0.2541-0.1934 0.0000 ( 36410 PWs)   bands (ev):

   -44.1586 -44.1586 -22.2657 -22.2657 -22.1888 -22.1888 -22.0972 -22.0970
    -8.3198  -8.1710  -7.0711  -6.9457  -5.9530  -5.3457  -4.7423  -4.6730
    -4.6446  -3.9316   0.2552   0.6669   0.9446   1.0357   1.1840   1.3710
     1.4033   1.6020   1.7651   2.5778   2.6327   3.1497   3.4021   3.6675
     3.7380   3.7663   3.9036   3.9208   3.9416   4.2139   4.2872   4.4049
     4.4468   4.6854   6.0355   6.0487   6.2219   6.2866   6.4249   6.8191
     7.0321   7.1891

          k =-0.2541-0.1934 0.1485 ( 36427 PWs)   bands (ev):

   -44.1586 -44.1586 -22.2657 -22.2657 -22.1888 -22.1888 -22.0971 -22.0970
    -8.3007  -8.1960  -7.0482  -6.9603  -5.8940  -5.4922  -4.7294  -4.6701
    -4.4983  -4.0110   0.3238   0.6279   0.8609   1.0665   1.0864   1.2459
     1.4423   1.7218   2.0512   2.5782   2.6219   2.9289   3.4479   3.4887
     3.5507   3.8163   3.8815   3.9133   4.0475   4.2168   4.4080   4.4441
     4.5961   4.7847   5.9119   5.9965   6.1356   6.2667   6.2993   6.8458
     7.1770   7.2130

          k =-0.2541-0.1934-0.2971 ( 36422 PWs)   bands (ev):

   -44.1586 -44.1586 -22.2657 -22.2657 -22.1888 -22.1888 -22.0971 -22.0971
    -8.2513  -8.2513  -7.0002  -7.0002  -5.7259  -5.7259  -4.6996  -4.6996
    -4.2244  -4.2244   0.4944   0.4944   0.8522   0.8522   1.1697   1.1697
     1.6524   1.6524   2.4817   2.4817   2.6443   2.6443   3.3115   3.3115
     3.7390   3.7390   3.8618   3.8618   4.1759   4.1759   4.4280   4.4280
     4.8932   4.8932   5.7584   5.7584   6.1871   6.1871   6.5205   6.5205
     7.3285   7.3285

          k = 0.0000-0.1290 0.0000 ( 36417 PWs)   bands (ev):

   -44.1590 -44.1590 -22.2676 -22.2676 -22.1793 -22.1793 -22.0982 -22.0980
    -8.4505  -8.2994  -7.1343  -6.9959  -6.0058  -5.3929  -4.7748  -4.7107
    -4.5912  -3.7286   0.1755   0.8365   0.8975   1.1888   1.2055   1.5591
     1.5615   1.6337   2.2534   2.8423   2.9218   2.9493   3.1745   3.4718
     3.9130   3.9914   4.0018   4.0136   4.2858   4.4095   4.4898   4.6348
     4.7694   5.1288   5.6315   5.8590   5.8942   5.9802   6.1818   6.6434
     7.1687   7.2163

          k = 0.0000-0.1290 0.1485 ( 36419 PWs)   bands (ev):

   -44.1590 -44.1590 -22.2676 -22.2676 -22.1793 -22.1793 -22.0982 -22.0981
    -8.4311  -8.3248  -7.1089  -7.0119  -5.9471  -5.5408  -4.7631  -4.7177
    -4.4165  -3.8316   0.2567   0.8552   0.9376   0.9709   1.1574   1.5713
     1.6222   1.8413   2.0007   2.8555   2.9116   2.9704   3.3366   3.5538
     3.8590   3.9724   4.0173   4.0351   4.3156   4.3399   4.4806   4.6751
     4.7579   4.7655   5.8326   5.8653   5.8881   6.2321   6.3061   6.5232
     6.9680   7.0302

          k = 0.0000-0.1290-0.2971 ( 36464 PWs)   bands (ev):

   -44.1590 -44.1590 -22.2676 -22.2676 -22.1793 -22.1793 -22.0981 -22.0981
    -8.3809  -8.3809  -7.0558  -7.0558  -5.7783  -5.7783  -4.7399  -4.7399
    -4.0967  -4.0967   0.4933   0.4933   1.0269   1.0269   1.3671   1.3671
     1.5959   1.5959   2.5145   2.5145   2.8851   2.8851   3.6672   3.6672
     3.8713   3.8713   4.1563   4.1563   4.1799   4.1799   4.4676   4.4676
     4.7253   4.7253   5.8638   5.8638   6.1981   6.1981   6.6122   6.6122
     6.6597   6.6597

          k = 1.0162 0.0000 0.0000 ( 36499 PWs)   bands (ev):

   -44.1565 -44.1565 -22.2543 -22.2543 -22.2435 -22.2435 -22.0909 -22.0909
    -6.7947  -6.7728  -6.4200  -6.4165  -6.4126  -6.4005  -5.1334  -5.1330
    -4.4151  -4.3837  -0.2078  -0.1714   0.1006   0.1294   0.9996   1.0351
     1.4828   1.6312   2.1855   2.3728   2.3827   2.3979   2.7410   2.8889
     2.8931   2.9194   3.1350   3.2215   3.2806   3.2950   3.4750   3.5768
     4.0059   4.3188   6.7111   6.8101   6.8801   6.9575   7.2281   7.2449
     7.2457   7.2494

          k = 1.0162 0.0000 0.1485 ( 36485 PWs)   bands (ev):

   -44.1565 -44.1565 -22.2543 -22.2543 -22.2435 -22.2435 -22.0909 -22.0909
    -6.7883  -6.7723  -6.4620  -6.4552  -6.3718  -6.3671  -5.1322  -5.1318
    -4.4123  -4.3902  -0.2902  -0.2769   0.2783   0.2827   1.0040   1.0227
     1.4723   1.5709   2.1067   2.2155   2.3282   2.3888   2.6113   2.6753
     2.9001   3.0282   3.1359   3.2138   3.4827   3.4862   3.6370   3.6537
     4.1117   4.3315   6.3876   6.4324   6.6161   6.7048   7.2627   7.2644
     7.5149   7.5384

          k = 1.0162 0.0000-0.2971 ( 36514 PWs)   bands (ev):

   -44.1565 -44.1565 -22.2543 -22.2543 -22.2435 -22.2435 -22.0909 -22.0909
    -6.7767  -6.7767  -6.4788  -6.4788  -6.3526  -6.3526  -5.1308  -5.1308
    -4.4032  -4.4032  -0.3422  -0.3422   0.4308   0.4308   0.9886   0.9886
     1.4993   1.4993   2.0053   2.0053   2.3233   2.3233   2.7105   2.7105
     2.8316   2.8316   3.2088   3.2088   3.6169   3.6169   3.7540   3.7540
     4.3270   4.3270   6.0777   6.0777   6.5595   6.5595   7.2732   7.2732
     7.6363   7.6363

          k = 1.2703 0.0645 0.0000 ( 36468 PWs)   bands (ev):

   -44.1569 -44.1569 -22.2563 -22.2563 -22.2341 -22.2341 -22.0920 -22.0920
    -7.3319  -7.1885  -6.7902  -6.6914  -5.7497  -5.6099  -5.1606  -5.1054
    -4.4876  -4.4196  -0.3560   0.0330   0.0425   0.8455   0.8984   1.2882
     1.5020   1.7208   2.1484   2.1602   2.2475   2.2546   2.4088   2.8897
     3.0377   3.1897   3.3634   3.4002   3.5100   3.5655   3.6414   3.6780
     4.1472   4.5364   6.3122   6.5719   6.6222   6.8440   7.0662   7.1918
     7.3658   7.5245

          k = 1.2703 0.0645 0.1485 ( 36490 PWs)   bands (ev):

   -44.1569 -44.1569 -22.2563 -22.2563 -22.2341 -22.2341 -22.0920 -22.0920
    -7.3143  -7.2142  -6.7722  -6.7035  -5.7251  -5.6256  -5.1572  -5.1194
    -4.4765  -4.4289  -0.3175  -0.0386   0.1494   0.7657   0.8836   1.2280
     1.5315   1.6230   2.0514   2.1363   2.2299   2.5444   2.6425   2.9554
     2.9713   3.0713   3.2402   3.2634   3.4831   3.5341   3.7808   3.8428
     4.1346   4.4815   6.0988   6.5544   6.7262   6.9409   7.0564   7.2134
     7.2545   7.5448

          k = 1.2703 0.0645-0.2971 ( 36480 PWs)   bands (ev):

   -44.1569 -44.1569 -22.2563 -22.2563 -22.2341 -22.2341 -22.0920 -22.0920
    -7.2680  -7.2680  -6.7352  -6.7352  -5.6709  -5.6709  -5.1435  -5.1435
    -4.4518  -4.4518  -0.1975  -0.1975   0.4399   0.4399   1.0396   1.0396
     1.5650   1.5650   2.0844   2.0844   2.4785   2.4785   2.8524   2.8524
     2.9940   2.9940   3.1537   3.1537   3.5788   3.5788   3.8875   3.8875
     4.2072   4.2072   6.4240   6.4240   6.5683   6.5683   7.1731   7.1731
     7.4896   7.4896

          k =-0.5081-0.3869 0.0000 ( 36463 PWs)   bands (ev):

   -44.1578 -44.1578 -22.2610 -22.2610 -22.2115 -22.2115 -22.0946 -22.0945
    -7.9341  -7.7923  -6.9251  -6.8236  -5.8012  -5.2219  -4.9840  -4.6198
    -4.5329  -4.5171  -0.1909   0.3497   0.7276   0.7707   1.1799   1.5423
     1.6570   1.7443   1.7987   2.0341   2.1565   2.4915   2.6023   3.2819
     3.5094   3.5147   3.5768   3.5880   3.7248   3.7833   4.0682   4.1661
     4.2663   4.8407   5.9538   6.1765   6.3630   6.8061   6.9267   6.9337
     7.3594   7.4332

          k =-0.5081-0.3869 0.1485 ( 36477 PWs)   bands (ev):

   -44.1578 -44.1578 -22.2610 -22.2610 -22.2115 -22.2115 -22.0946 -22.0945
    -7.9159  -7.8162  -6.9073  -6.8361  -5.7448  -5.3755  -4.8620  -4.6032
    -4.5904  -4.4995  -0.1262   0.2791   0.7377   0.8009   1.1332   1.2714
     1.6271   1.7272   1.9499   2.0292   2.3688   2.5510   2.8797   3.2076
     3.3881   3.5175   3.5292   3.5968   3.7194   3.7483   4.0442   4.1385
     4.2392   4.5227   6.2632   6.3655   6.4243   6.7915   6.8230   6.9857
     7.1840   7.4605

          k =-0.5081-0.3869-0.2971 ( 36492 PWs)   bands (ev):

   -44.1578 -44.1578 -22.2610 -22.2610 -22.2115 -22.2115 -22.0945 -22.0945
    -7.8688  -7.8688  -6.8691  -6.8691  -5.5890  -5.5890  -4.7160  -4.7160
    -4.5318  -4.5318   0.0575   0.0575   0.9191   0.9191   0.9668   0.9668
     1.6775   1.6775   2.0004   2.0004   2.7162   2.7162   3.0643   3.0643
     3.3555   3.3555   3.5732   3.5732   3.6835   3.6835   4.0232   4.0232
     4.2947   4.2947   6.4559   6.4559   6.7034   6.7034   6.8390   6.8390
     7.3186   7.3186

          k =-0.2541-0.3224 0.0000 ( 36485 PWs)   bands (ev):

   -44.1587 -44.1587 -22.2657 -22.2657 -22.1888 -22.1888 -22.0972 -22.0970
    -8.3165  -8.1703  -7.0674  -6.9438  -5.9687  -5.3524  -4.7641  -4.6633
    -4.6365  -3.9325   0.2803   0.6583   0.9525   1.1112   1.2281   1.4140
     1.4384   1.6853   1.7889   2.5145   2.5892   3.1793   3.4823   3.5826
     3.6382   3.6457   3.7799   3.9317   3.9458   4.1402   4.1810   4.3293
     4.3890   4.7423   6.0880   6.1425   6.2425   6.3485   6.4627   6.8897
     6.9542   7.1079

          k =-0.2541-0.3224 0.1485 ( 36445 PWs)   bands (ev):

   -44.1587 -44.1586 -22.2657 -22.2657 -22.1888 -22.1888 -22.0971 -22.0970
    -8.2977  -8.1948  -7.0453  -6.9586  -5.9079  -5.4995  -4.7450  -4.6627
    -4.4954  -4.0111   0.3498   0.6261   0.8627   1.0954   1.1951   1.2987
     1.4720   1.7461   2.1093   2.5173   2.5809   2.9562   3.4356   3.4790
     3.6200   3.6266   3.6772   3.9126   3.9947   4.1547   4.3379   4.3827
     4.5773   4.8290   5.9220   5.9903   6.1747   6.3333   6.4073   6.8062
     7.1615   7.1988

          k =-0.2541-0.3224-0.2971 ( 36442 PWs)   bands (ev):

   -44.1586 -44.1586 -22.2657 -22.2657 -22.1888 -22.1888 -22.0971 -22.0971
    -8.2490  -8.2490  -6.9984  -6.9984  -5.7362  -5.7362  -4.7037  -4.7037
    -4.2230  -4.2230   0.5138   0.5138   0.8623   0.8623   1.2559   1.2559
     1.6746   1.6746   2.4824   2.4824   2.6381   2.6381   3.3049   3.3049
     3.6131   3.6131   3.8214   3.8214   4.1170   4.1170   4.3649   4.3649
     4.9142   4.9142   5.7419   5.7419   6.2296   6.2296   6.5560   6.5560
     7.3201   7.3201

          k = 0.0000-0.2579 0.0000 ( 36445 PWs)   bands (ev):

   -44.1590 -44.1590 -22.2676 -22.2676 -22.1793 -22.1793 -22.0982 -22.0980
    -8.4476  -8.2987  -7.1291  -6.9938  -6.0230  -5.4010  -4.7925  -4.6980
    -4.5904  -3.7292   0.2036   0.8433   1.0049   1.2319   1.2434   1.5608
     1.6313   1.6329   2.2450   2.8597   2.9316   2.9555   3.1756   3.5786
     3.6484   3.7079   3.9632   3.9853   4.1610   4.3659   4.4103   4.6015
     4.7658   5.1025   5.6737   5.9442   5.9814   6.0491   6.2018   6.6859
     7.0756   7.1688

          k = 0.0000-0.2579 0.1485 ( 36452 PWs)   bands (ev):

   -44.1590 -44.1590 -22.2676 -22.2676 -22.1793 -22.1793 -22.0982 -22.0981
    -8.4284  -8.3237  -7.1047  -7.0097  -5.9627  -5.5496  -4.7778  -4.7090
    -4.4157  -3.8318   0.2866   0.8945   0.9734   1.0457   1.2171   1.5706
     1.6215   1.8536   2.0429   2.8719   2.9225   2.9852   3.3106   3.5991
     3.6901   3.7293   3.9203   4.0080   4.2179   4.3022   4.3662   4.6574
     4.7538   4.7595   5.8899   5.9245   5.9673   6.2481   6.3226   6.5604
     6.9194   6.9714

          k = 0.0000-0.2579-0.2971 ( 36454 PWs)   bands (ev):

   -44.1590 -44.1590 -22.2676 -22.2676 -22.1793 -22.1793 -22.0981 -22.0981
    -8.3789  -8.3789  -7.0530  -7.0530  -5.7900  -5.7900  -4.7431  -4.7431
    -4.0962  -4.0962   0.5282   0.5282   1.1055   1.1055   1.3790   1.3790
     1.5952   1.5952   2.5486   2.5486   2.8988   2.8988   3.5724   3.5724
     3.7836   3.7836   4.0758   4.0758   4.1333   4.1333   4.3951   4.3951
     4.7180   4.7180   5.9263   5.9263   6.2375   6.2375   6.6093   6.6093
     6.6219   6.6219

          k = 1.5243 0.0000 0.0000 ( 36439 PWs)   bands (ev):

   -44.1578 -44.1578 -22.2610 -22.2610 -22.2115 -22.2115 -22.0946 -22.0945
    -7.9327  -7.7920  -6.9256  -6.8232  -5.8041  -5.2227  -4.9862  -4.6220
    -4.5296  -4.5176  -0.1948   0.3566   0.7298   0.7578   1.1835   1.6101
     1.6733   1.7578   1.7801   2.0231   2.1868   2.4706   2.5950   3.2535
     3.5016   3.5286   3.5408   3.5900   3.7027   3.7932   4.0176   4.1977
     4.2607   4.8493   5.9498   6.1436   6.3947   6.8513   6.8911   7.0018
     7.3302   7.4842

          k = 1.5243 0.0000 0.1485 ( 36476 PWs)   bands (ev):

   -44.1578 -44.1578 -22.2610 -22.2610 -22.2115 -22.2115 -22.0946 -22.0945
    -7.9146  -7.8156  -6.9078  -6.8360  -5.7472  -5.3764  -4.8648  -4.6032
    -4.5917  -4.4971  -0.1291   0.2838   0.7350   0.7954   1.1336   1.2800
     1.7182   1.7383   1.9271   2.0043   2.4265   2.5115   2.8710   3.1908
     3.3544   3.5240   3.5303   3.5769   3.7205   3.7329   4.0343   4.1482
     4.2196   4.5349   6.2364   6.3832   6.4222   6.7810   6.8409   7.0618
     7.1416   7.4836

          k = 1.5243 0.0000-0.2971 ( 36508 PWs)   bands (ev):

   -44.1578 -44.1578 -22.2610 -22.2610 -22.2115 -22.2115 -22.0945 -22.0945
    -7.8679  -7.8679  -6.8695  -6.8695  -5.5906  -5.5906  -4.7187  -4.7187
    -4.5301  -4.5301   0.0572   0.0572   0.9222   0.9222   0.9627   0.9627
     1.7384   1.7384   1.9708   1.9708   2.7502   2.7502   3.0112   3.0112
     3.3555   3.3555   3.5642   3.5642   3.6746   3.6746   4.0279   4.0279
     4.2886   4.2886   6.4437   6.4437   6.7080   6.7080   6.8422   6.8422
     7.3378   7.3378

          k =-0.2541-0.4514 0.0000 ( 36444 PWs)   bands (ev):

   -44.1587 -44.1586 -22.2657 -22.2657 -22.1888 -22.1888 -22.0972 -22.0970
    -8.3142  -8.1698  -7.0652  -6.9419  -5.9800  -5.3570  -4.7773  -4.6527
    -4.6367  -3.9331   0.2936   0.6528   0.9580   1.1488   1.3047   1.4307
     1.4629   1.7661   1.8206   2.4479   2.5192   3.2419   3.4346   3.4682
     3.5398   3.6314   3.8509   3.9413   3.9492   4.0358   4.1028   4.2615
     4.3743   4.7792   6.1186   6.2236   6.2246   6.4096   6.4877   6.8750
     6.9355   7.0648

          k =-0.2541-0.4514 0.1485 ( 36461 PWs)   bands (ev):

   -44.1587 -44.1586 -22.2657 -22.2657 -22.1888 -22.1888 -22.0971 -22.0970
    -8.2956  -8.1939  -7.0435  -6.9570  -5.9179  -5.5045  -4.7547  -4.6586
    -4.4935  -4.0113   0.3640   0.6248   0.8635   1.1187   1.2684   1.3564
     1.5031   1.7747   2.1702   2.4535   2.5068   2.9969   3.3695   3.4149
     3.5182   3.5772   3.7611   3.9093   3.9718   4.0402   4.2937   4.3610
     4.5666   4.8579   5.9281   5.9844   6.2099   6.3643   6.4728   6.7543
     7.1719   7.1884

          k =-0.2541-0.4514-0.2971 ( 36490 PWs)   bands (ev):

   -44.1587 -44.1587 -22.2657 -22.2657 -22.1888 -22.1888 -22.0971 -22.0971
    -8.2474  -8.2474  -6.9971  -6.9971  -5.7433  -5.7433  -4.7065  -4.7065
    -4.2221  -4.2221   0.5246   0.5246   0.8673   0.8673   1.3316   1.3316
     1.7001   1.7001   2.4645   2.4645   2.6338   2.6338   3.2796   3.2796
     3.4858   3.4858   3.8905   3.8905   4.0395   4.0395   4.3308   4.3308
     4.9278   4.9278   5.7328   5.7328   6.2378   6.2378   6.5816   6.5816
     7.3191   7.3191

          k = 0.0000-0.3869 0.0000 ( 36477 PWs)   bands (ev):

   -44.1590 -44.1590 -22.2676 -22.2676 -22.1793 -22.1793 -22.0982 -22.0980
    -8.4446  -8.2980  -7.1245  -6.9909  -6.0406  -5.4090  -4.8077  -4.6860
    -4.5915  -3.7298   0.2238   0.8520   1.1481   1.2558   1.3082   1.5602
     1.6322   1.7071   2.2379   2.8785   2.9409   2.9715   3.1620   3.3254
     3.4556   3.7323   3.9345   4.0068   4.0274   4.2013   4.4111   4.5685
     4.7623   5.0837   5.7161   6.0035   6.0360   6.1343   6.2221   6.7198
     6.9256   7.1688

          k = 0.0000-0.3869 0.1485 ( 36452 PWs)   bands (ev):

   -44.1590 -44.1590 -22.2676 -22.2676 -22.1793 -22.1793 -22.0982 -22.0981
    -8.4257  -8.3226  -7.1007  -7.0070  -5.9784  -5.5582  -4.7898  -4.7028
    -4.4150  -3.8320   0.3082   0.9241   0.9875   1.1883   1.2882   1.5700
     1.6208   1.8653   2.0923   2.8894   2.9333   2.9995   3.2360   3.3440
     3.4758   3.8127   3.9525   3.9804   4.1011   4.2093   4.2872   4.6412
     4.7498   4.7573   5.9483   5.9693   6.0139   6.2643   6.3394   6.5837
     6.8021   6.9747

          k = 0.0000-0.3869-0.2971 ( 36454 PWs)   bands (ev):

   -44.1590 -44.1590 -22.2676 -22.2676 -22.1793 -22.1793 -22.0981 -22.0981
    -8.3769  -8.3769  -7.0502  -7.0502  -5.8018  -5.8018  -4.7464  -4.7464
    -4.0956  -4.0956   0.5544   0.5544   1.2084   1.2084   1.3973   1.3973
     1.5946   1.5946   2.5881   2.5881   2.9130   2.9130   3.3005   3.3005
     3.8326   3.8326   4.0232   4.0232   4.1095   4.1095   4.3216   4.3216
     4.7112   4.7112   5.9619   5.9619   6.2819   6.2819   6.5435   6.5435
     6.6318   6.6318

          k =-2.0325 0.0000 0.0000 ( 36452 PWs)   bands (ev):

   -44.1590 -44.1590 -22.2676 -22.2676 -22.1793 -22.1793 -22.0982 -22.0980
    -8.4434  -8.2978  -7.1227  -6.9894  -6.0480  -5.4123  -4.8135  -4.6808
    -4.5926  -3.7301   0.2299   0.8562   1.2650   1.2689   1.2825   1.5599
     1.6319   1.7514   2.2355   2.8869   2.9445   2.9814   3.1113   3.2124
     3.3686   3.8889   3.9089   3.9225   4.0151   4.1020   4.4115   4.5548
     4.7609   5.0769   5.7336   6.0231   6.0526   6.1794   6.2307   6.7265
     6.8606   7.1687

          k =-2.0325 0.0000 0.1485 ( 36456 PWs)   bands (ev):

   -44.1590 -44.1590 -22.2676 -22.2676 -22.1793 -22.1793 -22.0982 -22.0981
    -8.4246  -8.3221  -7.0993  -7.0057  -5.9850  -5.5617  -4.7944  -4.7006
    -4.4148  -3.8320   0.3148   0.9367   0.9926   1.2820   1.3011   1.5697
     1.6205   1.8703   2.1190   2.8971   2.9376   2.9967   3.1346   3.2592
     3.4190   3.9183   3.9615   3.9689   4.0526   4.0975   4.2806   4.6349
     4.7482   4.7565   5.9743   5.9866   6.0260   6.2731   6.3465   6.5834
     6.7550   6.9761

          k =-2.0325 0.0000-0.2971 ( 36460 PWs)   bands (ev):

   -44.1590 -44.1590 -22.2676 -22.2676 -22.1793 -22.1793 -22.0981 -22.0981
    -8.3760  -8.3760  -7.0490  -7.0490  -5.8066  -5.8066  -4.7478  -4.7478
    -4.0953  -4.0953   0.5628   0.5628   1.2576   1.2576   1.4098   1.4098
     1.5943   1.5943   2.6081   2.6081   2.9190   2.9190   3.1720   3.1720
     3.8672   3.8672   3.9975   3.9975   4.0995   4.0995   4.2917   4.2917
     4.7086   4.7086   5.9719   5.9719   6.3037   6.3037   6.5102   6.5102
     6.6360   6.6360

     the Fermi energy is     5.3514 ev

!    total energy              =   -4240.91585488 Ry

     total all-electron energy =   -150287.609550 Ry
     estimated scf accuracy    <          8.6E-12 Ry
     smearing contrib. (-TS)   =       0.00000000 Ry
     internal energy E=F+TS    =   -4240.91585488 Ry

     The total energy is F=E-TS. E is the sum of the following terms:
     one-electron contribution =    -169.17962481 Ry
     hartree contribution      =     118.02807755 Ry
     xc contribution           =    -201.66237083 Ry
     ewald contribution        =    -220.55190359 Ry
     one-center paw contrib.   =   -3767.55003322 Ry

     convergence has been achieved in  17 iterations

     Forces acting on atoms (cartesian axes, Ry/au):

     atom    1 type  1   force =     0.00000000    0.02386494    0.00000000
     atom    2 type  1   force =     0.00000000   -0.02386494    0.00000000
     atom    3 type  2   force =    -0.00000000   -0.00034754    0.00000000
     atom    4 type  2   force =     0.00000000    0.00034754    0.00000000
     atom    5 type  2   force =     0.00000000   -0.00556949   -0.00394796
     atom    6 type  2   force =     0.00000000    0.00556949    0.00394796
     atom    7 type  2   force =     0.00000000   -0.00556949    0.00394796
     atom    8 type  2   force =     0.00000000    0.00556949   -0.00394796
     atom    9 type  2   force =     0.00000000   -0.04601252   -0.05512314
     atom   10 type  2   force =     0.00000000    0.04601252    0.05512314
     atom   11 type  2   force =     0.00000000   -0.04601252    0.05512314
     atom   12 type  2   force =    -0.00000000    0.04601252   -0.05512314

     Total force =     0.148151     Total SCF correction =     0.000004


     Computing stress (Cartesian axis) and pressure

          total   stress  (Ry/bohr**3)                   (kbar)     P=       13.21
   0.00011141   0.00000000   0.00000000           16.39        0.00        0.00
  -0.00000000   0.00004392   0.00000000           -0.00        6.46        0.00
   0.00000000   0.00000000   0.00011406            0.00        0.00       16.78

 
     init_run     :     36.13s CPU     37.54s WALL (       1 calls)
     electrons    :   1709.07s CPU   1727.47s WALL (       1 calls)
     forces       :      6.78s CPU      7.01s WALL (       1 calls)
     stress       :     41.31s CPU     41.99s WALL (       1 calls)

     Called by init_run:
     wfcinit      :     31.15s CPU     31.47s WALL (       1 calls)
     potinit      :      1.51s CPU      1.57s WALL (       1 calls)
     hinit0       :      1.75s CPU      2.47s WALL (       1 calls)

     Called by electrons:
     c_bands      :   1395.81s CPU   1403.99s WALL (      18 calls)
     sum_band     :    280.95s CPU    286.97s WALL (      18 calls)
     v_of_rho     :      8.12s CPU      8.71s WALL (      18 calls)
     newd         :     17.27s CPU     21.12s WALL (      18 calls)
     PAW_pot      :      6.60s CPU      6.61s WALL (      18 calls)
     mix_rho      :      1.49s CPU      1.53s WALL (      18 calls)

     Called by c_bands:
     init_us_2    :     13.88s CPU     13.95s WALL (    2457 calls)
     cegterg      :   1318.55s CPU   1325.99s WALL (    1134 calls)

     Called by *egterg:
     cdiaghg      :     28.64s CPU     28.78s WALL (    8101 calls)
     h_psi        :   1136.08s CPU   1143.28s WALL (    8227 calls)
     s_psi        :     52.68s CPU     52.78s WALL (    8227 calls)
     g_psi        :      2.30s CPU      2.32s WALL (    7030 calls)

     Called by h_psi:
     h_psi:calbec :     43.96s CPU     44.08s WALL (    8227 calls)
     vloc_psi     :   1035.35s CPU   1042.23s WALL (    8227 calls)
     add_vuspsi   :     52.69s CPU     52.80s WALL (    8227 calls)

     General routines
     calbec       :     57.06s CPU     57.23s WALL (    9676 calls)
     fft          :      7.24s CPU      7.82s WALL (     258 calls)
     ffts         :      0.19s CPU      0.19s WALL (      36 calls)
     fftw         :   1030.79s CPU   1037.49s WALL (  423326 calls)
     interpolate  :      0.63s CPU      0.63s WALL (      18 calls)
 
     Parallel routines
     fft_scatt_xy :    273.59s CPU    275.36s WALL (  423620 calls)
     fft_scatt_yz :    207.73s CPU    209.48s WALL (  423620 calls)
 
     PWSCF        :  29m54.45s CPU  30m19.17s WALL

 
   This run was terminated on:  15:16:36  19Nov2021            

=------------------------------------------------------------------------------=
   JOB DONE.
=------------------------------------------------------------------------------=
