
     Program PWSCF v.6.7MaX starts on 19Nov2021 at 14:46:17 

     This program is part of the open-source Quantum ESPRESSO suite
     for quantum simulation of materials; please cite
         "P. Giannozzi et al., J. Phys.:Condens. Matter 21 395502 (2009);
         "P. Giannozzi et al., J. Phys.:Condens. Matter 29 465901 (2017);
          URL http://www.quantum-espresso.org", 
     in publications or presentations arising from this work. More details at
     http://www.quantum-espresso.org/quote

     Parallel version (MPI), running on    10 processors

     MPI processes distributed on     1 nodes
     R & G space division:  proc/nbgrp/npool/nimage =      10
     Waiting for input...
     Reading input from standard input

     Current dimensions of program PWSCF are:
     Max number of different atomic species (ntypx) = 10
     Max number of k-points (npk) =  40000
     Max angular momentum in pseudopotentials (lmaxx) =  3
     file Zr.pbe-spn-kjpaw_psl.1.0.0.UPF: wavefunction(s)  4S 4P renormalized
     file Te.pbe-n-kjpaw_psl.1.0.0.UPF: wavefunction(s)  5S 5P renormalized

     Subspace diagonalization in iterative solution of the eigenvalue problem:
     a serial algorithm will be used

     Message from routine setup:
     using ibrav=0 with symmetry is DISCOURAGED, use correct ibrav instead
 
     Parallelization info
     --------------------
     sticks:   dense  smooth     PW     G-vecs:    dense   smooth      PW
     Min         734     293     87               115340    29174    4753
     Max         735     295     88               115345    29176    4760
     Sum        7345    2937    873              1153415   291749   47557
 


     bravais-lattice index     =            0
     lattice parameter (alat)  =      15.5510  a.u.
     unit-cell volume          =    3018.5011 (a.u.)^3
     number of atoms/cell      =           12
     number of atomic types    =            2
     number of electrons       =        84.00
     number of Kohn-Sham states=           50
     kinetic-energy cutoff     =      80.0000  Ry
     charge density cutoff     =     800.0000  Ry
     scf convergence threshold =      1.0E-10
     mixing beta               =       0.7000
     number of iterations used =            8  plain     mixing
     Exchange-correlation= SLA  PW   PBX  PBC
                           (   1   4   3   4   0   0   0)

     celldm(1)=  15.551040  celldm(2)=   0.000000  celldm(3)=   0.000000
     celldm(4)=   0.000000  celldm(5)=   0.000000  celldm(6)=   0.000000

     crystal axes: (cart. coord. in units of alat)
               a(1) = (   0.246007  -0.969268   0.000000 )  
               a(2) = (   0.246007   0.969268   0.000000 )  
               a(3) = (   0.000000   0.000000   1.683031 )  

     reciprocal axes: (cart. coord. in units 2 pi/alat)
               b(1) = (  2.032465 -0.515853  0.000000 )  
               b(2) = (  2.032465  0.515853  0.000000 )  
               b(3) = (  0.000000  0.000000  0.594166 )  


     PseudoPot. # 1 for Zr read from file:
     pseudo/Zr.pbe-spn-kjpaw_psl.1.0.0.UPF
     MD5 check sum: 02112c41713a0468aff2bb39ef194e36
     Pseudo is Projector augmented-wave + core cor, Zval = 12.0
     Generated using &quot;atomic&quot; code by A. Dal Corso  v.6.2.2
     Shape of augmentation charge: PSQ
     Using radial grid of 1225 points,  6 beta functions with: 
                l(1) =   0
                l(2) =   0
                l(3) =   1
                l(4) =   1
                l(5) =   2
                l(6) =   2
     Q(r) pseudized with 0 coefficients 


     PseudoPot. # 2 for Te read from file:
     pseudo/Te.pbe-n-kjpaw_psl.1.0.0.UPF
     MD5 check sum: 66247bff2bd9dbf220fbb0bf5ab56e9d
     Pseudo is Projector augmented-wave + core cor, Zval =  6.0
     Generated using &quot;atomic&quot; code by A. Dal Corso  v.6.3
     Shape of augmentation charge: PSQ
     Using radial grid of 1245 points,  6 beta functions with: 
                l(1) =   0
                l(2) =   0
                l(3) =   1
                l(4) =   1
                l(5) =   2
                l(6) =   2
     Q(r) pseudized with 0 coefficients 


     atomic species   valence    mass     pseudopotential
        Zr            12.00    91.22000     Zr( 1.00)
        Te             6.00   127.60000     Te( 1.00)

      8 Sym. Ops., with inversion, found ( 4 have fractional translation)



   Cartesian axes

     site n.     atom                  positions (alat units)
         1           Zr  tau(   1) = (   0.0000000   0.5983162   0.4207578  )
         2           Zr  tau(   2) = (   0.2460067   0.3709519   1.2622733  )
         3           Te  tau(   3) = (   0.2460067   0.3341019   0.4207578  )
         4           Te  tau(   4) = (   0.0000000   0.6351663   1.2622733  )
         5           Te  tau(   5) = (   0.2460067   0.8131447   0.2543289  )
         6           Te  tau(   6) = (   0.0000000   0.1561234   1.4287022  )
         7           Te  tau(   7) = (   0.2460067   0.8131447   0.5871867  )
         8           Te  tau(   8) = (   0.0000000   0.1561234   1.0958444  )
         9           Te  tau(   9) = (   0.0000000   0.4276649   0.7430688  )
        10           Te  tau(  10) = (   0.2460067   0.5416032   0.9399622  )
        11           Te  tau(  11) = (   0.0000000   0.4276649   0.0984467  )
        12           Te  tau(  12) = (   0.2460067   0.5416032   1.5845844  )

     number of k points=    63  Methfessel-Paxton smearing, width (Ry)=  0.0030
                       cart. coord. in units 2pi/alat
        k(    1) = (   0.0000000   0.0000000   0.0000000), wk =   0.0078125
        k(    2) = (   0.0000000   0.0000000   0.1485415), wk =   0.0156250
        k(    3) = (   0.0000000   0.0000000  -0.2970830), wk =   0.0078125
        k(    4) = (   0.2540581   0.0644816   0.0000000), wk =   0.0312500
        k(    5) = (   0.2540581   0.0644816   0.1485415), wk =   0.0625000
        k(    6) = (   0.2540581   0.0644816  -0.2970830), wk =   0.0312500
        k(    7) = (   0.5081162   0.1289633   0.0000000), wk =   0.0312500
        k(    8) = (   0.5081162   0.1289633   0.1485415), wk =   0.0625000
        k(    9) = (   0.5081162   0.1289633  -0.2970830), wk =   0.0312500
        k(   10) = (   0.7621743   0.1934449   0.0000000), wk =   0.0312500
        k(   11) = (   0.7621743   0.1934449   0.1485415), wk =   0.0625000
        k(   12) = (   0.7621743   0.1934449  -0.2970830), wk =   0.0312500
        k(   13) = (  -1.0162324  -0.2579266   0.0000000), wk =   0.0156250
        k(   14) = (  -1.0162324  -0.2579266   0.1485415), wk =   0.0312500
        k(   15) = (  -1.0162324  -0.2579266  -0.2970830), wk =   0.0156250
        k(   16) = (   0.5081162   0.0000000   0.0000000), wk =   0.0156250
        k(   17) = (   0.5081162   0.0000000   0.1485415), wk =   0.0312500
        k(   18) = (   0.5081162   0.0000000  -0.2970830), wk =   0.0156250
        k(   19) = (   0.7621743   0.0644816   0.0000000), wk =   0.0312500
        k(   20) = (   0.7621743   0.0644816   0.1485415), wk =   0.0625000
        k(   21) = (   0.7621743   0.0644816  -0.2970830), wk =   0.0312500
        k(   22) = (   1.0162324   0.1289633   0.0000000), wk =   0.0312500
        k(   23) = (   1.0162324   0.1289633   0.1485415), wk =   0.0625000
        k(   24) = (   1.0162324   0.1289633  -0.2970830), wk =   0.0312500
        k(   25) = (  -0.7621743  -0.3224082   0.0000000), wk =   0.0312500
        k(   26) = (  -0.7621743  -0.3224082   0.1485415), wk =   0.0625000
        k(   27) = (  -0.7621743  -0.3224082  -0.2970830), wk =   0.0312500
        k(   28) = (  -0.5081162  -0.2579266   0.0000000), wk =   0.0312500
        k(   29) = (  -0.5081162  -0.2579266   0.1485415), wk =   0.0625000
        k(   30) = (  -0.5081162  -0.2579266  -0.2970830), wk =   0.0312500
        k(   31) = (  -0.2540581  -0.1934449   0.0000000), wk =   0.0312500
        k(   32) = (  -0.2540581  -0.1934449   0.1485415), wk =   0.0625000
        k(   33) = (  -0.2540581  -0.1934449  -0.2970830), wk =   0.0312500
        k(   34) = (   0.0000000  -0.1289633   0.0000000), wk =   0.0156250
        k(   35) = (   0.0000000  -0.1289633   0.1485415), wk =   0.0312500
        k(   36) = (   0.0000000  -0.1289633  -0.2970830), wk =   0.0156250
        k(   37) = (   1.0162324   0.0000000   0.0000000), wk =   0.0156250
        k(   38) = (   1.0162324   0.0000000   0.1485415), wk =   0.0312500
        k(   39) = (   1.0162324   0.0000000  -0.2970830), wk =   0.0156250
        k(   40) = (   1.2702905   0.0644816   0.0000000), wk =   0.0312500
        k(   41) = (   1.2702905   0.0644816   0.1485415), wk =   0.0625000
        k(   42) = (   1.2702905   0.0644816  -0.2970830), wk =   0.0312500
        k(   43) = (  -0.5081162  -0.3868899   0.0000000), wk =   0.0312500
        k(   44) = (  -0.5081162  -0.3868899   0.1485415), wk =   0.0625000
        k(   45) = (  -0.5081162  -0.3868899  -0.2970830), wk =   0.0312500
        k(   46) = (  -0.2540581  -0.3224082   0.0000000), wk =   0.0312500
        k(   47) = (  -0.2540581  -0.3224082   0.1485415), wk =   0.0625000
        k(   48) = (  -0.2540581  -0.3224082  -0.2970830), wk =   0.0312500
        k(   49) = (   0.0000000  -0.2579266   0.0000000), wk =   0.0156250
        k(   50) = (   0.0000000  -0.2579266   0.1485415), wk =   0.0312500
        k(   51) = (   0.0000000  -0.2579266  -0.2970830), wk =   0.0156250
        k(   52) = (   1.5243485   0.0000000   0.0000000), wk =   0.0156250
        k(   53) = (   1.5243485   0.0000000   0.1485415), wk =   0.0312500
        k(   54) = (   1.5243485   0.0000000  -0.2970830), wk =   0.0156250
        k(   55) = (  -0.2540581  -0.4513715   0.0000000), wk =   0.0312500
        k(   56) = (  -0.2540581  -0.4513715   0.1485415), wk =   0.0625000
        k(   57) = (  -0.2540581  -0.4513715  -0.2970830), wk =   0.0312500
        k(   58) = (   0.0000000  -0.3868899   0.0000000), wk =   0.0156250
        k(   59) = (   0.0000000  -0.3868899   0.1485415), wk =   0.0312500
        k(   60) = (   0.0000000  -0.3868899  -0.2970830), wk =   0.0156250
        k(   61) = (  -2.0324647   0.0000000   0.0000000), wk =   0.0078125
        k(   62) = (  -2.0324647   0.0000000   0.1485415), wk =   0.0156250
        k(   63) = (  -2.0324647   0.0000000  -0.2970830), wk =   0.0078125

     Dense  grid:  1153415 G-vectors     FFT dimensions: ( 144, 144, 240)

     Smooth grid:   291749 G-vectors     FFT dimensions: (  90,  90, 150)

     Estimated max dynamical RAM per process >     657.19 MB

     Estimated total dynamical RAM >       6.42 GB

     Initial potential from superposition of free atoms

     starting charge   83.99353, renormalised to   84.00000
     Starting wfcs are   66 randomized atomic wfcs
     Checking if some PAW data can be deallocated... 

     total cpu time spent up to now is       42.3 secs

     Self-consistent Calculation

     iteration #  1     ecut=    80.00 Ry     beta= 0.70
     Davidson diagonalization with overlap
     ethr =  1.00E-02,  avg # of iterations =  2.2

     Threshold (ethr) on eigenvalues was too large:
     Diagonalizing with lowered threshold

     Davidson diagonalization with overlap
     ethr =  4.87E-04,  avg # of iterations =  4.0

     total cpu time spent up to now is      200.4 secs

     total energy              =   -4240.67831876 Ry
     estimated scf accuracy    <       0.46007316 Ry

     iteration #  2     ecut=    80.00 Ry     beta= 0.70
     Davidson diagonalization with overlap
     ethr =  5.48E-04,  avg # of iterations =  8.3

     total cpu time spent up to now is      314.2 secs

     total energy              =   -4240.56701247 Ry
     estimated scf accuracy    <       2.07818275 Ry

     iteration #  3     ecut=    80.00 Ry     beta= 0.70
     Davidson diagonalization with overlap
     ethr =  5.48E-04,  avg # of iterations =  5.4

     total cpu time spent up to now is      408.4 secs

     total energy              =   -4240.90200014 Ry
     estimated scf accuracy    <       0.00795332 Ry

     iteration #  4     ecut=    80.00 Ry     beta= 0.70
     Davidson diagonalization with overlap
     c_bands:  1 eigenvalues not converged
     c_bands:  1 eigenvalues not converged
     c_bands:  2 eigenvalues not converged
     c_bands:  1 eigenvalues not converged
     c_bands:  1 eigenvalues not converged
     c_bands:  1 eigenvalues not converged
     c_bands:  2 eigenvalues not converged
     c_bands:  4 eigenvalues not converged
     c_bands:  1 eigenvalues not converged
     c_bands:  2 eigenvalues not converged
     c_bands:  2 eigenvalues not converged
     c_bands:  2 eigenvalues not converged
     c_bands:  1 eigenvalues not converged
     c_bands:  2 eigenvalues not converged
     c_bands:  2 eigenvalues not converged
     c_bands:  1 eigenvalues not converged
     c_bands:  1 eigenvalues not converged
     c_bands:  1 eigenvalues not converged
     c_bands:  1 eigenvalues not converged
     c_bands:  1 eigenvalues not converged
     c_bands:  1 eigenvalues not converged
     ethr =  9.47E-06,  avg # of iterations = 17.2

     total cpu time spent up to now is      582.1 secs

     total energy              =   -4240.91071525 Ry
     estimated scf accuracy    <       0.03503112 Ry

     iteration #  5     ecut=    80.00 Ry     beta= 0.70
     Davidson diagonalization with overlap
     ethr =  9.47E-06,  avg # of iterations =  6.4

     total cpu time spent up to now is      673.5 secs

     total energy              =   -4240.91258313 Ry
     estimated scf accuracy    <       0.00576620 Ry

     iteration #  6     ecut=    80.00 Ry     beta= 0.70
     Davidson diagonalization with overlap
     ethr =  6.86E-06,  avg # of iterations =  3.7

     total cpu time spent up to now is      751.8 secs

     total energy              =   -4240.91307138 Ry
     estimated scf accuracy    <       0.00096369 Ry

     iteration #  7     ecut=    80.00 Ry     beta= 0.70
     Davidson diagonalization with overlap
     ethr =  1.15E-06,  avg # of iterations =  8.2

     total cpu time spent up to now is      861.1 secs

     total energy              =   -4240.91348852 Ry
     estimated scf accuracy    <       0.00070057 Ry

     iteration #  8     ecut=    80.00 Ry     beta= 0.70
     Davidson diagonalization with overlap
     ethr =  8.34E-07,  avg # of iterations =  2.0

     total cpu time spent up to now is      930.2 secs

     total energy              =   -4240.91351102 Ry
     estimated scf accuracy    <       0.00010412 Ry

     iteration #  9     ecut=    80.00 Ry     beta= 0.70
     Davidson diagonalization with overlap
     ethr =  1.24E-07,  avg # of iterations =  6.3

     total cpu time spent up to now is     1020.1 secs

     total energy              =   -4240.91354360 Ry
     estimated scf accuracy    <       0.00001012 Ry

     iteration # 10     ecut=    80.00 Ry     beta= 0.70
     Davidson diagonalization with overlap
     ethr =  1.20E-08,  avg # of iterations =  4.8

     total cpu time spent up to now is     1099.3 secs

     total energy              =   -4240.91354619 Ry
     estimated scf accuracy    <       0.00000046 Ry

     iteration # 11     ecut=    80.00 Ry     beta= 0.70
     Davidson diagonalization with overlap
     ethr =  5.53E-10,  avg # of iterations =  8.1

     total cpu time spent up to now is     1217.0 secs

     total energy              =   -4240.91354671 Ry
     estimated scf accuracy    <       0.00000028 Ry

     iteration # 12     ecut=    80.00 Ry     beta= 0.70
     Davidson diagonalization with overlap
     ethr =  3.36E-10,  avg # of iterations =  2.4

     total cpu time spent up to now is     1289.0 secs

     total energy              =   -4240.91354674 Ry
     estimated scf accuracy    <       0.00000001 Ry

     iteration # 13     ecut=    80.00 Ry     beta= 0.70
     Davidson diagonalization with overlap
     ethr =  1.65E-11,  avg # of iterations =  8.5

     total cpu time spent up to now is     1408.4 secs

     total energy              =   -4240.91354676 Ry
     estimated scf accuracy    <       0.00000002 Ry

     iteration # 14     ecut=    80.00 Ry     beta= 0.70
     Davidson diagonalization with overlap
     ethr =  1.65E-11,  avg # of iterations =  2.2

     total cpu time spent up to now is     1478.3 secs

     total energy              =   -4240.91354676 Ry
     estimated scf accuracy    <          4.2E-09 Ry

     iteration # 15     ecut=    80.00 Ry     beta= 0.70
     Davidson diagonalization with overlap
     ethr =  4.98E-12,  avg # of iterations =  6.3

     total cpu time spent up to now is     1569.4 secs

     total energy              =   -4240.91354676 Ry
     estimated scf accuracy    <          9.1E-10 Ry

     iteration # 16     ecut=    80.00 Ry     beta= 0.70
     Davidson diagonalization with overlap
     ethr =  1.08E-12,  avg # of iterations =  2.7

     total cpu time spent up to now is     1640.7 secs

     total energy              =   -4240.91354676 Ry
     estimated scf accuracy    <          4.0E-10 Ry

     iteration # 17     ecut=    80.00 Ry     beta= 0.70
     Davidson diagonalization with overlap
     ethr =  4.81E-13,  avg # of iterations =  5.1

     total cpu time spent up to now is     1720.8 secs

     End of self-consistent calculation

          k = 0.0000 0.0000 0.0000 ( 36359 PWs)   bands (ev):

   -44.1601 -44.1600 -22.2682 -22.2682 -22.1800 -22.1800 -22.0995 -22.0993
    -8.4722  -8.3236  -7.1372  -6.9995  -5.9908  -5.3880  -4.7638  -4.7151
    -4.5816  -3.7244   0.1564   0.8385   0.8590   1.1784   1.1855   1.5241
     1.5363   1.6055   2.2574   2.8375   2.9181   2.9462   3.1673   3.4372
     3.9294   4.0079   4.1281   4.1440   4.3380   4.4134   4.5411   4.6451
     4.7739   5.1294   5.6129   5.8071   5.8370   5.9581   6.1833   6.6140
     7.1754   7.2707

          k = 0.0000 0.0000 0.1485 ( 36415 PWs)   bands (ev):

   -44.1601 -44.1600 -22.2682 -22.2682 -22.1800 -22.1800 -22.0995 -22.0994
    -8.4531  -8.3485  -7.1120  -7.0154  -5.9332  -5.5334  -4.7529  -4.7213
    -4.4087  -3.8272   0.2368   0.8238   0.9171   0.9688   1.1372   1.5457
     1.5945   1.8338   1.9834   2.8508   2.9077   2.9595   3.3469   3.5166
     3.8529   4.0507   4.1078   4.1483   4.3240   4.3967   4.5245   4.6819
     4.7622   4.7649   5.7973   5.8347   5.8380   6.2213   6.3079   6.4966
     6.9722   7.0699

          k = 0.0000 0.0000-0.2971 ( 36410 PWs)   bands (ev):

   -44.1600 -44.1600 -22.2682 -22.2682 -22.1800 -22.1800 -22.0994 -22.0994
    -8.4036  -8.4036  -7.0591  -7.0591  -5.7672  -5.7672  -4.7365  -4.7365
    -4.0912  -4.0912   0.4711   0.4711   1.0025   1.0025   1.3652   1.3652
     1.5693   1.5693   2.4967   2.4967   2.8806   2.8806   3.6588   3.6588
     3.9236   3.9236   4.1692   4.1692   4.2674   4.2674   4.5003   4.5003
     4.7299   4.7299   5.8207   5.8207   6.1784   6.1784   6.6146   6.6146
     6.6696   6.6696

          k = 0.2541 0.0645 0.0000 ( 36396 PWs)   bands (ev):

   -44.1597 -44.1597 -22.2663 -22.2663 -22.1894 -22.1894 -22.0985 -22.0983
    -8.3422  -8.1951  -7.0748  -6.9495  -5.9344  -5.3394  -4.7205  -4.6718
    -4.6522  -3.9291   0.2268   0.6525   0.9425   0.9804   1.1537   1.3408
     1.3678   1.5554   1.7493   2.6083   2.6445   3.1424   3.3558   3.6862
     3.7714   3.8151   3.9141   3.9551   4.1058   4.2971   4.3396   4.4511
     4.5075   4.6475   5.9856   5.9947   6.1305   6.2822   6.3908   6.7727
     7.0710   7.2615

          k = 0.2541 0.0645 0.1485 ( 36423 PWs)   bands (ev):

   -44.1597 -44.1597 -22.2663 -22.2663 -22.1894 -22.1894 -22.0984 -22.0983
    -8.3233  -8.2198  -7.0518  -6.9640  -5.8770  -5.4833  -4.7128  -4.6764
    -4.4947  -4.0084   0.2950   0.6122   0.8516   1.0133   1.0455   1.2141
     1.4157   1.7112   2.0103   2.6114   2.6283   2.9209   3.4412   3.4784
     3.5166   3.8870   3.9881   4.0677   4.0861   4.2556   4.4471   4.5096
     4.6237   4.7463   5.9005   5.9957   6.1051   6.1881   6.2195   6.8554
     7.2095   7.2232

          k = 0.2541 0.0645-0.2971 ( 36436 PWs)   bands (ev):

   -44.1597 -44.1597 -22.2663 -22.2663 -22.1894 -22.1894 -22.0984 -22.0984
    -8.2744  -8.2744  -7.0037  -7.0037  -5.7128  -5.7128  -4.6946  -4.6946
    -4.2215  -4.2215   0.4690   0.4690   0.8308   0.8308   1.1232   1.1232
     1.6343   1.6343   2.4739   2.4739   2.6448   2.6448   3.3131   3.3131
     3.7112   3.7112   4.0417   4.0417   4.2030   4.2030   4.4862   4.4862
     4.8729   4.8729   5.7729   5.7729   6.1199   6.1199   6.5053   6.5053
     7.3373   7.3373

          k = 0.5081 0.1290 0.0000 ( 36499 PWs)   bands (ev):

   -44.1588 -44.1588 -22.2616 -22.2616 -22.2121 -22.2121 -22.0959 -22.0958
    -7.9597  -7.8160  -6.9253  -6.8267  -5.7808  -5.2161  -4.9720  -4.6004
    -4.5534  -4.5176  -0.1891   0.3015   0.7400   0.8054   1.1637   1.3206
     1.6377   1.6730   1.7243   2.0693   2.1364   2.4772   2.6363   3.4314
     3.4507   3.5541   3.5968   3.7507   3.7581   3.8569   4.0333   4.2668
     4.2896   4.7852   5.9896   6.2240   6.3394   6.6145   6.6701   7.1105
     7.3979   7.5381

          k = 0.5081 0.1290 0.1485 ( 36476 PWs)   bands (ev):

   -44.1588 -44.1588 -22.2616 -22.2616 -22.2121 -22.2121 -22.0959 -22.0958
    -7.9413  -7.8403  -6.9072  -6.8382  -5.7269  -5.3675  -4.8481  -4.6037
    -4.5801  -4.5134  -0.1284   0.2397   0.7567   0.8159   1.1400   1.2197
     1.4064   1.5939   1.9991   2.0878   2.2728   2.5433   2.9041   3.3152
     3.4579   3.4979   3.5576   3.7271   3.7869   3.8120   3.9149   4.2738
     4.3157   4.4567   6.2936   6.3592   6.4680   6.6137   6.7443   6.9889
     7.2616   7.5259

          k = 0.5081 0.1290-0.2971 ( 36466 PWs)   bands (ev):

   -44.1588 -44.1588 -22.2616 -22.2616 -22.2121 -22.2121 -22.0959 -22.0959
    -7.8937  -7.8937  -6.8695  -6.8695  -5.5764  -5.5764  -4.7029  -4.7029
    -4.5401  -4.5401   0.0425   0.0425   0.9023   0.9023   0.9853   0.9853
     1.4825   1.4825   2.0561   2.0561   2.6271   2.6271   3.1873   3.1873
     3.3811   3.3811   3.6002   3.6002   3.7821   3.7821   3.9648   3.9648
     4.3610   4.3610   6.5199   6.5199   6.5752   6.5752   6.8992   6.8992
     7.3074   7.3074

          k = 0.7622 0.1934 0.0000 ( 36521 PWs)   bands (ev):

   -44.1579 -44.1579 -22.2569 -22.2569 -22.2347 -22.2347 -22.0934 -22.0933
    -7.3566  -7.2100  -6.7836  -6.6921  -5.7549  -5.6139  -5.1578  -5.1035
    -4.4714  -4.4324  -0.3472   0.0273   0.0502   0.8744   0.8956   1.3147
     1.4928   1.5927   2.0222   2.1103   2.2244   2.3143   2.4782   2.8211
     3.0338   3.1979   3.3512   3.4222   3.5378   3.6590   3.7075   3.7671
     3.9148   4.6008   6.3203   6.5151   6.6515   6.9827   7.0025   7.0536
     7.4107   7.6175

          k = 0.7622 0.1934 0.1485 ( 36503 PWs)   bands (ev):

   -44.1579 -44.1579 -22.2569 -22.2569 -22.2347 -22.2347 -22.0933 -22.0933
    -7.3387  -7.2362  -6.7662  -6.7027  -5.7309  -5.6305  -5.1543  -5.1169
    -4.4645  -4.4371  -0.3087  -0.0334   0.1433   0.7412   0.9303   1.2558
     1.5004   1.5881   1.9823   2.0180   2.2001   2.5459   2.7191   2.9098
     2.9749   3.0138   3.2724   3.3233   3.5048   3.5924   3.8005   3.9297
     4.0022   4.4654   6.1641   6.4885   6.7945   6.9508   7.0593   7.1482
     7.2355   7.6734

          k = 0.7622 0.1934-0.2971 ( 36522 PWs)   bands (ev):

   -44.1579 -44.1579 -22.2569 -22.2569 -22.2347 -22.2347 -22.0933 -22.0933
    -7.2913  -7.2913  -6.7313  -6.7313  -5.6770  -5.6770  -5.1405  -5.1405
    -4.4497  -4.4497  -0.1900  -0.1900   0.4254   0.4254   1.0725   1.0725
     1.5517   1.5517   1.9756   1.9756   2.4706   2.4706   2.8577   2.8577
     2.9425   2.9425   3.2498   3.2498   3.5881   3.5881   3.9694   3.9694
     4.1060   4.1060   6.4890   6.4890   6.5735   6.5735   7.0950   7.0950
     7.6135   7.6135

          k =-1.0162-0.2579 0.0000 ( 36506 PWs)   bands (ev):

   -44.1576 -44.1576 -22.2549 -22.2549 -22.2441 -22.2441 -22.0923 -22.0923
    -6.7983  -6.7764  -6.4353  -6.4320  -6.4253  -6.4128  -5.1293  -5.1288
    -4.4126  -4.3811  -0.2031  -0.1859   0.0997   0.1206   1.0136   1.0201
     1.4666   1.6537   2.1924   2.3472   2.3798   2.4079   2.7733   2.8501
     2.8714   2.9242   3.1686   3.2089   3.2768   3.3333   3.4273   3.5856
     4.0473   4.2892   6.7278   6.7920   6.9231   6.9348   7.1482   7.2482
     7.2484   7.3248

          k =-1.0162-0.2579 0.1485 ( 36506 PWs)   bands (ev):

   -44.1576 -44.1576 -22.2549 -22.2549 -22.2441 -22.2441 -22.0923 -22.0923
    -6.7917  -6.7757  -6.4766  -6.4697  -6.3854  -6.3805  -5.1280  -5.1276
    -4.4099  -4.3876  -0.2902  -0.2849   0.2696   0.2781   1.0102   1.0171
     1.4573   1.5861   2.0977   2.2486   2.3169   2.3864   2.6172   2.6524
     2.9186   3.0019   3.1341   3.2295   3.4679   3.5307   3.5807   3.6673
     4.1538   4.3004   6.4023   6.4249   6.6274   6.7051   7.2621   7.2665
     7.4955   7.5651

          k =-1.0162-0.2579-0.2971 ( 36528 PWs)   bands (ev):

   -44.1576 -44.1576 -22.2549 -22.2549 -22.2441 -22.2441 -22.0923 -22.0923
    -6.7798  -6.7798  -6.4935  -6.4935  -6.3661  -6.3661  -5.1266  -5.1266
    -4.4006  -4.4006  -0.3460  -0.3460   0.4223   0.4223   0.9900   0.9900
     1.4963   1.4963   2.0100   2.0100   2.3294   2.3294   2.7436   2.7436
     2.7811   2.7811   3.2228   3.2228   3.6120   3.6120   3.7522   3.7522
     4.3274   4.3274   6.0844   6.0844   6.5648   6.5648   7.2741   7.2741
     7.6412   7.6412

          k = 0.5081 0.0000 0.0000 ( 36503 PWs)   bands (ev):

   -44.1588 -44.1588 -22.2616 -22.2616 -22.2121 -22.2121 -22.0959 -22.0958
    -7.9610  -7.8163  -6.9253  -6.8266  -5.7780  -5.2152  -4.9699  -4.5931
    -4.5618  -4.5171  -0.1851   0.2942   0.7446   0.8136   1.1603   1.2825
     1.6329   1.6605   1.7091   2.0763   2.1320   2.4669   2.6411   3.4419
     3.4461   3.5880   3.6094   3.7313   3.7715   3.9025   4.0112   4.2936
     4.3031   4.7727   5.9963   6.1991   6.3685   6.5787   6.6176   7.1506
     7.4009   7.5684

          k = 0.5081 0.0000 0.1485 ( 36453 PWs)   bands (ev):

   -44.1588 -44.1588 -22.2616 -22.2616 -22.2121 -22.2121 -22.0959 -22.0958
    -7.9425  -7.8408  -6.9070  -6.8380  -5.7244  -5.3664  -4.8453  -4.6039
    -4.5776  -4.5169  -0.1253   0.2348   0.7655   0.8148   1.1455   1.2079
     1.3680   1.5722   1.9991   2.1054   2.2538   2.5338   2.9073   3.3278
     3.4814   3.4872   3.5707   3.7527   3.7755   3.8666   3.8734   4.2994
     4.3439   4.4341   6.2790   6.3669   6.4865   6.5726   6.7066   7.0240
     7.2712   7.5470

          k = 0.5081 0.0000-0.2971 ( 36452 PWs)   bands (ev):

   -44.1588 -44.1588 -22.2616 -22.2616 -22.2121 -22.2121 -22.0959 -22.0959
    -7.8946  -7.8946  -6.8691  -6.8691  -5.5748  -5.5748  -4.7001  -4.7001
    -4.5421  -4.5421   0.0428   0.0428   0.8999   0.8999   0.9891   0.9891
     1.4499   1.4499   2.0612   2.0612   2.6154   2.6154   3.1968   3.1968
     3.3912   3.3912   3.6005   3.6005   3.8145   3.8145   3.9465   3.9465
     4.3776   4.3776   6.5286   6.5286   6.5446   6.5446   6.9164   6.9164
     7.3113   7.3113

          k = 0.7622 0.0645 0.0000 ( 36505 PWs)   bands (ev):

   -44.1579 -44.1579 -22.2569 -22.2569 -22.2347 -22.2347 -22.0934 -22.0933
    -7.3600  -7.2106  -6.7808  -6.6907  -5.7556  -5.6123  -5.1565  -5.1038
    -4.4596  -4.4448  -0.3394   0.0289   0.0545   0.8657   0.9241   1.3275
     1.4669   1.5523   1.9859   2.0962   2.2602   2.3345   2.4252   2.7968
     3.0258   3.2355   3.3553   3.4332   3.6034   3.6831   3.7133   3.7390
     3.8530   4.6174   6.3184   6.4835   6.6822   6.9767   7.0126   7.0360
     7.4134   7.6689

          k = 0.7622 0.0645 0.1485 ( 36509 PWs)   bands (ev):

   -44.1579 -44.1579 -22.2569 -22.2569 -22.2347 -22.2347 -22.0933 -22.0933
    -7.3417  -7.2375  -6.7633  -6.7009  -5.7315  -5.6295  -5.1532  -5.1168
    -4.4561  -4.4458  -0.3009  -0.0256   0.1401   0.7321   0.9559   1.2673
     1.4751   1.5830   1.9542   1.9663   2.2039   2.5421   2.7227   2.8976
     2.9786   3.0092   3.3050   3.3264   3.5467   3.5816   3.7856   3.9642
     3.9692   4.4558   6.1886   6.4637   6.8146   6.9494   7.0366   7.1783
     7.2139   7.7096

          k = 0.7622 0.0645-0.2971 ( 36472 PWs)   bands (ev):

   -44.1579 -44.1579 -22.2569 -22.2569 -22.2347 -22.2347 -22.0933 -22.0933
    -7.2937  -7.2937  -6.7287  -6.7287  -5.6770  -5.6770  -5.1398  -5.1398
    -4.4498  -4.4498  -0.1823  -0.1823   0.4196   0.4196   1.0897   1.0897
     1.5478   1.5478   1.9230   1.9230   2.4775   2.4775   2.8625   2.8625
     2.9169   2.9169   3.2940   3.2940   3.5847   3.5847   4.0052   4.0052
     4.0602   4.0602   6.5191   6.5191   6.5699   6.5699   7.0667   7.0667
     7.6413   7.6413

          k = 1.0162 0.1290 0.0000 ( 36514 PWs)   bands (ev):

   -44.1576 -44.1576 -22.2549 -22.2549 -22.2441 -22.2441 -22.0923 -22.0923
    -6.7984  -6.7764  -6.4353  -6.4319  -6.4252  -6.4129  -5.1292  -5.1288
    -4.4126  -4.3811  -0.2086  -0.1803   0.0976   0.1227   1.0044   1.0300
     1.4742   1.6428   2.1879   2.3549   2.3884   2.3982   2.7525   2.8772
     2.8879   2.9153   3.1659   3.1902   3.2840   3.3179   3.4490   3.5819
     4.0287   4.3079   6.7207   6.8037   6.9009   6.9567   7.1747   7.2479
     7.2504   7.3001

          k = 1.0162 0.1290 0.1485 ( 36524 PWs)   bands (ev):

   -44.1576 -44.1576 -22.2549 -22.2549 -22.2441 -22.2441 -22.0923 -22.0923
    -6.7917  -6.7757  -6.4765  -6.4698  -6.3854  -6.3805  -5.1280  -5.1276
    -4.4099  -4.3876  -0.2928  -0.2826   0.2707   0.2774   1.0065   1.0208
     1.4642   1.5788   2.1022   2.2335   2.3210   2.3887   2.6118   2.6654
     2.9064   3.0158   3.1356   3.2233   3.4746   3.5006   3.6119   3.6616
     4.1335   4.3200   6.3994   6.4347   6.6235   6.7069   7.2634   7.2667
     7.5039   7.5564

          k = 1.0162 0.1290-0.2971 ( 36516 PWs)   bands (ev):

   -44.1576 -44.1576 -22.2549 -22.2549 -22.2441 -22.2441 -22.0923 -22.0923
    -6.7798  -6.7798  -6.4935  -6.4935  -6.3661  -6.3661  -5.1266  -5.1266
    -4.4006  -4.4006  -0.3461  -0.3461   0.4226   0.4226   0.9898   0.9898
     1.4975   1.4975   2.0100   2.0100   2.3259   2.3259   2.7216   2.7216
     2.8094   2.8094   3.2172   3.2172   3.6135   3.6135   3.7520   3.7520
     4.3282   4.3282   6.0877   6.0877   6.5638   6.5638   7.2747   7.2747
     7.6408   7.6408

          k =-0.7622-0.3224 0.0000 ( 36511 PWs)   bands (ev):

   -44.1579 -44.1579 -22.2569 -22.2569 -22.2347 -22.2347 -22.0934 -22.0933
    -7.3518  -7.2090  -6.7881  -6.6937  -5.7540  -5.6162  -5.1596  -5.1031
    -4.4805  -4.4225  -0.3582   0.0258   0.0432   0.8629   0.8866   1.2992
     1.5021   1.6665   2.0923   2.1330   2.2096   2.2842   2.4794   2.8593
     3.0408   3.1821   3.3415   3.4106   3.5078   3.6144   3.6929   3.7046
     4.0513   4.5705   6.3230   6.5575   6.6254   6.9046   7.0404   7.1246
     7.3964   7.5474

          k =-0.7622-0.3224 0.1485 ( 36492 PWs)   bands (ev):

   -44.1579 -44.1579 -22.2569 -22.2569 -22.2347 -22.2347 -22.0933 -22.0933
    -7.3342  -7.2344  -6.7707  -6.7051  -5.7301  -5.6320  -5.1558  -5.1170
    -4.4708  -4.4302  -0.3196  -0.0437   0.1470   0.7538   0.9004   1.2395
     1.5235   1.6046   2.0224   2.0926   2.2043   2.5447   2.6887   2.9334
     2.9723   3.0396   3.2482   3.2968   3.4744   3.5757   3.7945   3.8798
     4.0763   4.4770   6.1322   6.5270   6.7597   6.9487   7.0713   7.1582
     7.2572   7.6013

          k =-0.7622-0.3224-0.2971 ( 36508 PWs)   bands (ev):

   -44.1579 -44.1579 -22.2569 -22.2569 -22.2347 -22.2347 -22.0933 -22.0933
    -7.2880  -7.2880  -6.7352  -6.7352  -5.6769  -5.6769  -5.1415  -5.1415
    -4.4495  -4.4495  -0.2005  -0.2005   0.4331   0.4331   1.0517   1.0517
     1.5588   1.5588   2.0423   2.0423   2.4698   2.4698   2.8537   2.8537
     2.9759   2.9759   3.1905   3.1905   3.5854   3.5854   3.9215   3.9215
     4.1679   4.1679   6.4543   6.4543   6.5734   6.5734   7.1393   7.1393
     7.5522   7.5523

          k =-0.5081-0.2579 0.0000 ( 36480 PWs)   bands (ev):

   -44.1588 -44.1588 -22.2616 -22.2616 -22.2121 -22.2121 -22.0959 -22.0958
    -7.9565  -7.8153  -6.9255  -6.8267  -5.7877  -5.2182  -4.9772  -4.6109
    -4.5402  -4.5188  -0.1986   0.3187   0.7311   0.7853   1.1720   1.4195
     1.6466   1.7038   1.7691   2.0559   2.1364   2.4988   2.6230   3.3655
     3.4763   3.5109   3.5872   3.6943   3.7730   3.7736   4.0958   4.1768
     4.2783   4.8123   5.9763   6.2524   6.3026   6.7059   6.7973   7.0185
     7.3869   7.4726

          k =-0.5081-0.2579 0.1485 ( 36485 PWs)   bands (ev):

   -44.1588 -44.1588 -22.2616 -22.2616 -22.2121 -22.2121 -22.0959 -22.0958
    -7.9384  -7.8391  -6.9078  -6.8386  -5.7328  -5.3699  -4.8548  -4.6033
    -4.5850  -4.5061  -0.1358   0.2513   0.7415   0.8123   1.1338   1.2449
     1.5043   1.6547   1.9866   2.0596   2.3096   2.5624   2.8950   3.2672
     3.4222   3.5109   3.5355   3.6777   3.7272   3.7821   3.9933   4.1996
     4.2769   4.4927   6.3231   6.3306   6.4403   6.7056   6.8423   6.9162
     7.2312   7.4818

          k =-0.5081-0.2579-0.2971 ( 36478 PWs)   bands (ev):

   -44.1588 -44.1588 -22.2616 -22.2616 -22.2121 -22.2121 -22.0959 -22.0959
    -7.8915  -7.8915  -6.8703  -6.8703  -5.5803  -5.5803  -4.7096  -4.7096
    -4.5355  -4.5355   0.0417   0.0417   0.9083   0.9083   0.9764   0.9764
     1.5695   1.5695   2.0374   2.0374   2.6621   2.6621   3.1449   3.1449
     3.3626   3.3626   3.5933   3.5933   3.7207   3.7207   4.0033   4.0033
     4.3240   4.3240   6.4893   6.4893   6.6528   6.6528   6.8609   6.8609
     7.3047   7.3047

          k =-0.2541-0.1934 0.0000 ( 36410 PWs)   bands (ev):

   -44.1597 -44.1597 -22.2663 -22.2663 -22.1894 -22.1894 -22.0985 -22.0983
    -8.3400  -8.1946  -7.0719  -6.9485  -5.9453  -5.3442  -4.7396  -4.6683
    -4.6395  -3.9297   0.2487   0.6458   0.9480   1.0354   1.1661   1.3674
     1.3929   1.6052   1.7636   2.5790   2.6341   3.1457   3.4063   3.6664
     3.7387   3.7668   3.9055   3.9210   3.9460   4.2158   4.2853   4.4082
     4.4528   4.6892   6.0362   6.0535   6.2204   6.2697   6.4178   6.8255
     7.0333   7.1917

          k =-0.2541-0.1934 0.1485 ( 36427 PWs)   bands (ev):

   -44.1597 -44.1597 -22.2663 -22.2663 -22.1894 -22.1894 -22.0984 -22.0983
    -8.3212  -8.2190  -7.0495  -6.9630  -5.8867  -5.4886  -4.7270  -4.6680
    -4.4924  -4.0086   0.3173   0.6109   0.8531   1.0598   1.0853   1.2438
     1.4315   1.7222   2.0466   2.5794   2.6234   2.9270   3.4490   3.4889
     3.5534   3.8197   3.8836   3.9138   4.0498   4.2193   4.4114   4.4491
     4.5924   4.7863   5.9132   5.9899   6.1376   6.2629   6.2952   6.8492
     7.1778   7.2118

          k =-0.2541-0.1934-0.2971 ( 36422 PWs)   bands (ev):

   -44.1597 -44.1597 -22.2663 -22.2663 -22.1894 -22.1894 -22.0984 -22.0984
    -8.2728  -8.2728  -7.0023  -7.0023  -5.7200  -5.7200  -4.6974  -4.6974
    -4.2206  -4.2206   0.4857   0.4857   0.8397   0.8397   1.1709   1.1709
     1.6453   1.6453   2.4805   2.4805   2.6441   2.6441   3.3137   3.3137
     3.7421   3.7421   3.8631   3.8631   4.1784   4.1784   4.4321   4.4321
     4.8898   4.8898   5.7566   5.7566   6.1863   6.1863   6.5219   6.5219
     7.3268   7.3268

          k = 0.0000-0.1290 0.0000 ( 36417 PWs)   bands (ev):

   -44.1601 -44.1600 -22.2682 -22.2682 -22.1800 -22.1800 -22.0995 -22.0993
    -8.4710  -8.3234  -7.1349  -6.9988  -5.9979  -5.3915  -4.7727  -4.7086
    -4.5809  -3.7247   0.1700   0.8406   0.8996   1.1902   1.1972   1.5360
     1.5582   1.6052   2.2536   2.8444   2.9223   2.9459   3.1677   3.4761
     3.9211   3.9963   4.0053   4.0137   4.2856   4.4138   4.4964   4.6312
     4.7723   5.1138   5.6301   5.8525   5.8917   5.9844   6.1916   6.6334
     7.1755   7.2145

          k = 0.0000-0.1290 0.1485 ( 36419 PWs)   bands (ev):

   -44.1601 -44.1600 -22.2682 -22.2682 -22.1800 -22.1800 -22.0995 -22.0994
    -8.4520  -8.3481  -7.1101  -7.0146  -5.9396  -5.5371  -4.7610  -4.7157
    -4.4084  -3.8272   0.2513   0.8500   0.9393   0.9743   1.1590   1.5454
     1.5942   1.8398   1.9994   2.8573   2.9122   2.9648   3.3333   3.5574
     3.8636   3.9755   4.0187   4.0395   4.3187   4.3415   4.4852   4.6742
     4.7575   4.7605   5.8289   5.8626   5.8856   6.2284   6.3147   6.5151
     6.9737   7.0266

          k = 0.0000-0.1290-0.2971 ( 36464 PWs)   bands (ev):

   -44.1601 -44.1601 -22.2682 -22.2682 -22.1800 -22.1800 -22.0994 -22.0994
    -8.4028  -8.4028  -7.0579  -7.0579  -5.7721  -5.7721  -4.7378  -4.7378
    -4.0910  -4.0910   0.4880   0.4880   1.0289   1.0289   1.3690   1.3690
     1.5691   1.5691   2.5101   2.5101   2.8862   2.8862   3.6710   3.6710
     3.8710   3.8710   4.1598   4.1598   4.1763   4.1763   4.4718   4.4718
     4.7268   4.7268   5.8610   5.8610   6.1937   6.1937   6.6186   6.6186
     6.6530   6.6530

          k = 1.0162 0.0000 0.0000 ( 36499 PWs)   bands (ev):

   -44.1576 -44.1576 -22.2549 -22.2549 -22.2441 -22.2441 -22.0923 -22.0923
    -6.7984  -6.7764  -6.4353  -6.4319  -6.4251  -6.4130  -5.1292  -5.1288
    -4.4126  -4.3811  -0.2125  -0.1763   0.0959   0.1245   0.9998   1.0353
     1.4829   1.6306   2.1838   2.3708   2.3805   2.3966   2.7399   2.8924
     2.8969   2.9201   3.1320   3.2212   3.2806   3.2932   3.4712   3.5768
     4.0124   4.3243   6.7151   6.8142   6.8897   6.9675   7.2305   7.2461
     7.2481   7.2518

          k = 1.0162 0.0000 0.1485 ( 36485 PWs)   bands (ev):

   -44.1576 -44.1576 -22.2549 -22.2549 -22.2441 -22.2441 -22.0923 -22.0923
    -6.7917  -6.7756  -6.4765  -6.4698  -6.3853  -6.3806  -5.1280  -5.1276
    -4.4099  -4.3876  -0.2945  -0.2811   0.2721   0.2765   1.0042   1.0231
     1.4723   1.5704   2.1074   2.2187   2.3265   2.3883   2.6114   2.6728
     2.8984   3.0264   3.1383   3.2159   3.4813   3.4825   3.6336   3.6535
     4.1168   4.3361   6.3982   6.4429   6.6198   6.7083   7.2649   7.2667
     7.5174   7.5425

          k = 1.0162 0.0000-0.2971 ( 36514 PWs)   bands (ev):

   -44.1576 -44.1576 -22.2549 -22.2549 -22.2441 -22.2441 -22.0923 -22.0923
    -6.7798  -6.7798  -6.4935  -6.4935  -6.3661  -6.3661  -5.1266  -5.1266
    -4.4006  -4.4006  -0.3462  -0.3462   0.4228   0.4228   0.9895   0.9895
     1.4988   1.4988   2.0101   2.0101   2.3224   2.3224   2.7090   2.7090
     2.8284   2.8284   3.2113   3.2113   3.6151   3.6151   3.7518   3.7518
     4.3290   4.3290   6.0910   6.0910   6.5628   6.5628   7.2753   7.2753
     7.6401   7.6401

          k = 1.2703 0.0645 0.0000 ( 36468 PWs)   bands (ev):

   -44.1579 -44.1579 -22.2569 -22.2569 -22.2347 -22.2347 -22.0934 -22.0933
    -7.3483  -7.2083  -6.7915  -6.6946  -5.7534  -5.6179  -5.1608  -5.1028
    -4.4852  -4.4171  -0.3658   0.0263   0.0366   0.8435   0.8952   1.2895
     1.5018   1.7212   2.1454   2.1531   2.2505   2.2598   2.4082   2.8908
     3.0407   3.1884   3.3617   3.3970   3.5103   3.5646   3.6436   3.6785
     4.1527   4.5389   6.3248   6.5784   6.6268   6.8477   7.0684   7.1950
     7.3680   7.5210

          k = 1.2703 0.0645 0.1485 ( 36490 PWs)   bands (ev):

   -44.1579 -44.1579 -22.2569 -22.2569 -22.2347 -22.2347 -22.0933 -22.0933
    -7.3310  -7.2332  -6.7741  -6.7067  -5.7295  -5.6330  -5.1569  -5.1171
    -4.4742  -4.4264  -0.3272  -0.0506   0.1492   0.7625   0.8824   1.2288
     1.5312   1.6226   2.0525   2.1329   2.2310   2.5409   2.6439   2.9565
     2.9725   3.0708   3.2414   3.2613   3.4824   3.5344   3.7819   3.8432
     4.1401   4.4827   6.1118   6.5582   6.7298   6.9452   7.0598   7.2170
     7.2588   7.5433

          k = 1.2703 0.0645-0.2971 ( 36480 PWs)   bands (ev):

   -44.1579 -44.1579 -22.2569 -22.2569 -22.2347 -22.2347 -22.0933 -22.0933
    -7.2856  -7.2856  -6.7379  -6.7379  -5.6769  -5.6769  -5.1421  -5.1421
    -4.4495  -4.4495  -0.2078  -0.2078   0.4382   0.4382   1.0393   1.0393
     1.5647   1.5647   2.0829   2.0829   2.4785   2.4785   2.8536   2.8536
     2.9926   2.9926   3.1540   3.1540   3.5781   3.5781   3.8877   3.8877
     4.2121   4.2121   6.4330   6.4330   6.5720   6.5720   7.1747   7.1747
     7.4910   7.4911

          k =-0.5081-0.3869 0.0000 ( 36463 PWs)   bands (ev):

   -44.1588 -44.1588 -22.2616 -22.2616 -22.2121 -22.2121 -22.0959 -22.0958
    -7.9532  -7.8146  -6.9262  -6.8261  -5.7946  -5.2203  -4.9824  -4.6177
    -4.5306  -4.5201  -0.2080   0.3356   0.7281   0.7613   1.1804   1.5427
     1.6573   1.7355   1.8010   2.0333   2.1556   2.4966   2.6070   3.2809
     3.5098   3.5116   3.5786   3.5900   3.7244   3.7866   4.0742   4.1692
     4.2654   4.8358   5.9654   6.1816   6.3679   6.8058   6.9309   6.9363
     7.3576   7.4311

          k =-0.5081-0.3869 0.1485 ( 36477 PWs)   bands (ev):

   -44.1588 -44.1588 -22.2616 -22.2616 -22.2121 -22.2121 -22.0959 -22.0958
    -7.9354  -7.8379  -6.9087  -6.8386  -5.7387  -5.3724  -4.8614  -4.6031
    -4.5888  -4.4998  -0.1430   0.2625   0.7316   0.8030   1.1326   1.2674
     1.6277   1.7278   1.9492   2.0287   2.3666   2.5542   2.8816   3.2059
     3.3839   3.5191   3.5310   3.5986   3.7224   3.7482   4.0512   4.1405
     4.2410   4.5231   6.2679   6.3698   6.4286   6.7926   6.8260   6.9894
     7.1830   7.4569

          k =-0.5081-0.3869-0.2971 ( 36492 PWs)   bands (ev):

   -44.1588 -44.1588 -22.2616 -22.2616 -22.2121 -22.2121 -22.0959 -22.0959
    -7.8893  -7.8893  -6.8712  -6.8712  -5.5842  -5.5842  -4.7160  -4.7160
    -4.5311  -4.5311   0.0408   0.0408   0.9148   0.9148   0.9674   0.9674
     1.6786   1.6786   2.0001   2.0001   2.7146   2.7146   3.0624   3.0624
     3.3547   3.3547   3.5768   3.5768   3.6837   3.6837   4.0293   4.0293
     4.2973   4.2973   6.4594   6.4594   6.7038   6.7038   6.8398   6.8398
     7.3223   7.3223

          k =-0.2541-0.3224 0.0000 ( 36485 PWs)   bands (ev):

   -44.1597 -44.1597 -22.2663 -22.2663 -22.1894 -22.1894 -22.0985 -22.0983
    -8.3368  -8.1939  -7.0682  -6.9464  -5.9609  -5.3510  -4.7610  -4.6580
    -4.6324  -3.9305   0.2739   0.6372   0.9557   1.1004   1.2190   1.4120
     1.4278   1.6894   1.7863   2.5159   2.5905   3.1765   3.4857   3.5835
     3.6384   3.6452   3.7828   3.9289   3.9503   4.1414   4.1809   4.3344
     4.3926   4.7466   6.0892   6.1474   6.2310   6.3421   6.4564   6.8956
     6.9556   7.1107

          k =-0.2541-0.3224 0.1485 ( 36445 PWs)   bands (ev):

   -44.1597 -44.1597 -22.2663 -22.2663 -22.1894 -22.1894 -22.0984 -22.0983
    -8.3183  -8.2177  -7.0466  -6.9611  -5.9006  -5.4960  -4.7425  -4.6605
    -4.4896  -4.0087   0.3433   0.6088   0.8545   1.0878   1.1930   1.2962
     1.4635   1.7465   2.1051   2.5186   2.5824   2.9554   3.4363   3.4776
     3.6238   3.6282   3.6793   3.9132   3.9982   4.1571   4.3427   4.3862
     4.5733   4.8312   5.9240   5.9827   6.1780   6.3302   6.4032   6.8082
     7.1634   7.1976

          k =-0.2541-0.3224-0.2971 ( 36442 PWs)   bands (ev):

   -44.1597 -44.1597 -22.2663 -22.2663 -22.1894 -22.1894 -22.0984 -22.0984
    -8.2707  -8.2707  -7.0004  -7.0004  -5.7303  -5.7303  -4.7013  -4.7013
    -4.2194  -4.2194   0.5048   0.5048   0.8498   0.8498   1.2564   1.2564
     1.6680   1.6680   2.4824   2.4824   2.6373   2.6373   3.3064   3.3064
     3.6161   3.6161   3.8227   3.8227   4.1198   4.1198   4.3688   4.3688
     4.9108   4.9108   5.7410   5.7410   6.2306   6.2306   6.5551   6.5551
     7.3183   7.3183

          k = 0.0000-0.2579 0.0000 ( 36445 PWs)   bands (ev):

   -44.1601 -44.1601 -22.2682 -22.2682 -22.1800 -22.1800 -22.0995 -22.0993
    -8.4682  -8.3227  -7.1298  -6.9965  -6.0151  -5.3997  -4.7904  -4.6957
    -4.5804  -3.7253   0.1978   0.8472   1.0070   1.2237   1.2449   1.5353
     1.6044   1.6306   2.2450   2.8618   2.9321   2.9517   3.1697   3.5828
     3.6527   3.7104   3.9680   3.9884   4.1611   4.3730   4.4147   4.5978
     4.7686   5.0881   5.6720   5.9377   5.9791   6.0536   6.2117   6.6758
     7.0741   7.1756

          k = 0.0000-0.2579 0.1485 ( 36452 PWs)   bands (ev):

   -44.1601 -44.1601 -22.2682 -22.2682 -22.1800 -22.1800 -22.0995 -22.0994
    -8.4494  -8.3470  -7.1058  -7.0123  -5.9552  -5.5460  -4.7756  -4.7069
    -4.4077  -3.8274   0.2811   0.8890   0.9765   1.0476   1.2189   1.5447
     1.5935   1.8523   2.0414   2.8737   2.9232   2.9800   3.3077   3.6043
     3.6912   3.7321   3.9218   4.0124   4.2198   4.3050   4.3717   4.6566
     4.7511   4.7563   5.8864   5.9221   5.9652   6.2444   6.3312   6.5532
     6.9149   6.9771

          k = 0.0000-0.2579-0.2971 ( 36454 PWs)   bands (ev):

   -44.1601 -44.1601 -22.2682 -22.2682 -22.1800 -22.1800 -22.0994 -22.0994
    -8.4009  -8.4009  -7.0551  -7.0551  -5.7840  -5.7840  -4.7409  -4.7409
    -4.0905  -4.0905   0.5229   0.5229   1.1073   1.1073   1.3808   1.3808
     1.5684   1.5684   2.5444   2.5444   2.8999   2.8999   3.5765   3.5765
     3.7839   3.7839   4.0721   4.0721   4.1367   4.1367   4.3981   4.3981
     4.7194   4.7194   5.9244   5.9244   6.2336   6.2336   6.6018   6.6018
     6.6284   6.6284

          k = 1.5243 0.0000 0.0000 ( 36439 PWs)   bands (ev):

   -44.1588 -44.1588 -22.2616 -22.2616 -22.2121 -22.2121 -22.0959 -22.0958
    -7.9519  -7.8143  -6.9266  -6.8257  -5.7975  -5.2211  -4.9845  -4.6199
    -4.5272  -4.5206  -0.2118   0.3424   0.7329   0.7457   1.1840   1.6102
     1.6732   1.7489   1.7831   2.0223   2.1855   2.4758   2.5995   3.2532
     3.4969   3.5310   3.5421   3.5919   3.7022   3.7953   4.0245   4.2012
     4.2598   4.8447   5.9614   6.1489   6.3995   6.8509   6.8952   7.0048
     7.3290   7.4823

          k = 1.5243 0.0000 0.1485 ( 36476 PWs)   bands (ev):

   -44.1588 -44.1588 -22.2616 -22.2616 -22.2121 -22.2121 -22.0959 -22.0958
    -7.9341  -7.8373  -6.9092  -6.8384  -5.7411  -5.3733  -4.8642  -4.6032
    -4.5900  -4.4974  -0.1459   0.2671   0.7288   0.7978   1.1330   1.2761
     1.7183   1.7399   1.9256   2.0038   2.4231   2.5160   2.8725   3.1903
     3.3499   3.5270   3.5308   3.5783   3.7230   3.7327   4.0417   4.1499
     4.2221   4.5355   6.2410   6.3876   6.4268   6.7853   6.8405   7.0659
     7.1406   7.4819

          k = 1.5243 0.0000-0.2971 ( 36508 PWs)   bands (ev):

   -44.1588 -44.1588 -22.2616 -22.2616 -22.2121 -22.2121 -22.0959 -22.0959
    -7.8883  -7.8883  -6.8715  -6.8715  -5.5858  -5.5858  -4.7185  -4.7185
    -4.5294  -4.5294   0.0405   0.0405   0.9179   0.9179   0.9634   0.9634
     1.7395   1.7395   1.9702   1.9702   2.7490   2.7490   3.0089   3.0089
     3.3546   3.3546   3.5680   3.5680   3.6746   3.6746   4.0341   4.0341
     4.2915   4.2915   6.4471   6.4471   6.7085   6.7085   6.8431   6.8431
     7.3414   7.3415

          k =-0.2541-0.4514 0.0000 ( 36444 PWs)   bands (ev):

   -44.1597 -44.1597 -22.2663 -22.2663 -22.1894 -22.1894 -22.0985 -22.0983
    -8.3346  -8.1934  -7.0661  -6.9443  -5.9722  -5.3557  -4.7740  -4.6463
    -4.6338  -3.9312   0.2873   0.6318   0.9613   1.1286   1.3055   1.4282
     1.4522   1.7704   1.8175   2.4496   2.5206   3.2404   3.4358   3.4685
     3.5427   3.6290   3.8541   3.9357   3.9538   4.0399   4.1038   4.2652
     4.3778   4.7838   6.1207   6.2115   6.2287   6.4045   6.4816   6.8771
     6.9413   7.0670

          k =-0.2541-0.4514 0.1485 ( 36461 PWs)   bands (ev):

   -44.1597 -44.1597 -22.2663 -22.2663 -22.1894 -22.1894 -22.0984 -22.0983
    -8.3163  -8.2169  -7.0448  -6.9594  -5.9106  -5.5011  -4.7520  -4.6563
    -4.4879  -4.0088   0.3577   0.6073   0.8550   1.1106   1.2628   1.3559
     1.4962   1.7749   2.1665   2.4551   2.5084   2.9969   3.3702   3.4147
     3.5182   3.5791   3.7624   3.9101   3.9761   4.0445   4.2974   4.3646
     4.5621   4.8606   5.9306   5.9765   6.2136   6.3622   6.4683   6.7552
     7.1741   7.1875

          k =-0.2541-0.4514-0.2971 ( 36490 PWs)   bands (ev):

   -44.1597 -44.1597 -22.2663 -22.2663 -22.1894 -22.1894 -22.0984 -22.0984
    -8.2691  -8.2691  -6.9990  -6.9990  -5.7375  -5.7375  -4.7041  -4.7041
    -4.2184  -4.2184   0.5155   0.5155   0.8549   0.8549   1.3312   1.3312
     1.6941   1.6941   2.4662   2.4662   2.6321   2.6321   3.2806   3.2806
     3.4883   3.4883   3.8919   3.8919   4.0430   4.0430   4.3345   4.3345
     4.9242   4.9242   5.7326   5.7326   6.2400   6.2400   6.5793   6.5793
     7.3174   7.3174

          k = 0.0000-0.3869 0.0000 ( 36477 PWs)   bands (ev):

   -44.1601 -44.1601 -22.2682 -22.2682 -22.1800 -22.1800 -22.0995 -22.0993
    -8.4653  -8.3221  -7.1252  -6.9934  -6.0326  -5.4078  -4.8054  -4.6837
    -4.5816  -3.7259   0.2179   0.8559   1.1500   1.2475   1.3099   1.5347
     1.6037   1.7063   2.2377   2.8806   2.9416   2.9671   3.1598   3.3286
     3.4543   3.7361   3.9393   4.0106   4.0279   4.2093   4.4155   4.5646
     4.7651   5.0696   5.7141   5.9970   6.0340   6.1391   6.2321   6.7109
     6.9227   7.1756

          k = 0.0000-0.3869 0.1485 ( 36452 PWs)   bands (ev):

   -44.1601 -44.1601 -22.2682 -22.2682 -22.1800 -22.1800 -22.0995 -22.0994
    -8.4468  -8.3459  -7.1019  -7.0095  -5.9709  -5.5547  -4.7875  -4.7006
    -4.4071  -3.8276   0.3027   0.9189   0.9905   1.1896   1.2899   1.5441
     1.5928   1.8641   2.0908   2.8912   2.9341   2.9961   3.2362   3.3449
     3.4742   3.8155   3.9540   3.9848   4.1042   4.2154   4.2898   4.6406
     4.7486   4.7523   5.9447   5.9666   6.0121   6.2615   6.3481   6.5789
     6.7946   6.9805

          k = 0.0000-0.3869-0.2971 ( 36454 PWs)   bands (ev):

   -44.1601 -44.1601 -22.2682 -22.2682 -22.1800 -22.1800 -22.0994 -22.0994
    -8.3989  -8.3989  -7.0522  -7.0522  -5.7957  -5.7957  -4.7442  -4.7442
    -4.0899  -4.0899   0.5493   0.5493   1.2096   1.2096   1.3990   1.3990
     1.5677   1.5677   2.5846   2.5846   2.9142   2.9142   3.3034   3.3034
     3.8317   3.8317   4.0232   4.0232   4.1128   4.1128   4.3228   4.3228
     4.7127   4.7127   5.9607   5.9607   6.2789   6.2789   6.5346   6.5346
     6.6384   6.6384

          k =-2.0325 0.0000 0.0000 ( 36452 PWs)   bands (ev):

   -44.1601 -44.1600 -22.2682 -22.2682 -22.1800 -22.1800 -22.0995 -22.0993
    -8.4641  -8.3218  -7.1234  -6.9919  -6.0400  -5.4111  -4.8111  -4.6787
    -4.5827  -3.7261   0.2240   0.8601   1.2566   1.2702   1.2848   1.5344
     1.6034   1.7506   2.2353   2.8890   2.9452   2.9768   3.1131   3.2162
     3.3625   3.8909   3.9108   3.9273   4.0191   4.1107   4.4158   4.5509
     4.7637   5.0628   5.7314   6.0164   6.0508   6.1844   6.2406   6.7201
     6.8550   7.1755

          k =-2.0325 0.0000 0.1485 ( 36456 PWs)   bands (ev):

   -44.1601 -44.1601 -22.2682 -22.2682 -22.1800 -22.1800 -22.0995 -22.0994
    -8.4457  -8.3455  -7.1004  -7.0081  -5.9774  -5.5583  -4.7920  -4.6984
    -4.4070  -3.8276   0.3093   0.9315   0.9955   1.2834   1.3023   1.5438
     1.5925   1.8691   2.1176   2.8989   2.9385   2.9959   3.1366   3.2573
     3.4153   3.9197   3.9625   3.9732   4.0578   4.1042   4.2830   4.6344
     4.7477   4.7507   5.9717   5.9823   6.0244   6.2710   6.3553   6.5811
     6.7448   6.9819

          k =-2.0325 0.0000-0.2971 ( 36460 PWs)   bands (ev):

   -44.1601 -44.1601 -22.2682 -22.2682 -22.1800 -22.1800 -22.0994 -22.0994
    -8.3981  -8.3981  -7.0509  -7.0509  -5.8006  -5.8006  -4.7456  -4.7456
    -4.0897  -4.0897   0.5578   0.5578   1.2585   1.2585   1.4117   1.4117
     1.5674   1.5674   2.6052   2.6052   2.9202   2.9202   3.1742   3.1742
     3.8642   3.8642   4.0009   4.0009   4.1027   4.1027   4.2917   4.2917
     4.7100   4.7100   5.9711   5.9711   6.3016   6.3016   6.5002   6.5002
     6.6426   6.6426

     the Fermi energy is     5.3522 ev

!    total energy              =   -4240.91354676 Ry

     total all-electron energy =   -150287.607241 Ry
     estimated scf accuracy    <          7.0E-13 Ry
     smearing contrib. (-TS)   =       0.00000000 Ry
     internal energy E=F+TS    =   -4240.91354676 Ry

     The total energy is F=E-TS. E is the sum of the following terms:
     one-electron contribution =    -169.23943704 Ry
     hartree contribution      =     118.05650932 Ry
     xc contribution           =    -201.66768123 Ry
     ewald contribution        =    -220.51179423 Ry
     one-center paw contrib.   =   -3767.55114357 Ry

     convergence has been achieved in  17 iterations

     Forces acting on atoms (cartesian axes, Ry/au):

     atom    1 type  1   force =     0.00000000    0.02448176    0.00000000
     atom    2 type  1   force =     0.00000000   -0.02448176    0.00000000
     atom    3 type  2   force =     0.00000000   -0.00036945    0.00000000
     atom    4 type  2   force =    -0.00000000    0.00036945    0.00000000
     atom    5 type  2   force =     0.00000000   -0.00571722   -0.00410986
     atom    6 type  2   force =     0.00000000    0.00571722    0.00410986
     atom    7 type  2   force =     0.00000000   -0.00571722    0.00410986
     atom    8 type  2   force =     0.00000000    0.00571722   -0.00410986
     atom    9 type  2   force =     0.00000000   -0.04749153   -0.05713737
     atom   10 type  2   force =     0.00000000    0.04749153    0.05713737
     atom   11 type  2   force =     0.00000000   -0.04749153    0.05713737
     atom   12 type  2   force =     0.00000000    0.04749153   -0.05713737

     Total force =     0.153225     Total SCF correction =     0.000001


     Computing stress (Cartesian axis) and pressure

          total   stress  (Ry/bohr**3)                   (kbar)     P=       13.71
   0.00011663   0.00000000   0.00000000           17.16        0.00        0.00
  -0.00000000   0.00004498   0.00000000           -0.00        6.62        0.00
   0.00000000   0.00000000   0.00011796            0.00        0.00       17.35

 
     init_run     :     35.76s CPU     36.94s WALL (       1 calls)
     electrons    :   1660.85s CPU   1678.58s WALL (       1 calls)
     forces       :      6.97s CPU      7.23s WALL (       1 calls)
     stress       :     47.69s CPU     48.30s WALL (       1 calls)

     Called by init_run:
     wfcinit      :     30.77s CPU     31.07s WALL (       1 calls)
     potinit      :      1.51s CPU      1.56s WALL (       1 calls)
     hinit0       :      1.73s CPU      2.27s WALL (       1 calls)

     Called by electrons:
     c_bands      :   1339.61s CPU   1346.83s WALL (      18 calls)
     sum_band     :    286.65s CPU    292.74s WALL (      18 calls)
     v_of_rho     :      8.80s CPU      9.48s WALL (      18 calls)
     newd         :     18.44s CPU     22.37s WALL (      18 calls)
     PAW_pot      :      6.87s CPU      6.87s WALL (      18 calls)
     mix_rho      :      1.61s CPU      1.65s WALL (      18 calls)

     Called by c_bands:
     init_us_2    :     13.43s CPU     13.52s WALL (    2457 calls)
     cegterg      :   1262.76s CPU   1269.31s WALL (    1134 calls)

     Called by *egterg:
     cdiaghg      :     26.61s CPU     26.75s WALL (    7616 calls)
     h_psi        :   1090.69s CPU   1097.02s WALL (    7742 calls)
     s_psi        :     48.50s CPU     48.59s WALL (    7742 calls)
     g_psi        :      2.15s CPU      2.17s WALL (    6545 calls)

     Called by h_psi:
     h_psi:calbec :     41.74s CPU     41.83s WALL (    7742 calls)
     vloc_psi     :    996.69s CPU   1002.79s WALL (    7742 calls)
     add_vuspsi   :     48.39s CPU     48.47s WALL (    7742 calls)

     General routines
     calbec       :     55.88s CPU     56.04s WALL (    9191 calls)
     fft          :      8.07s CPU      8.70s WALL (     258 calls)
     ffts         :      0.21s CPU      0.21s WALL (      36 calls)
     fftw         :    996.86s CPU   1002.83s WALL (  408038 calls)
     interpolate  :      0.69s CPU      0.70s WALL (      18 calls)
 
     Parallel routines
     fft_scatt_xy :    266.64s CPU    268.23s WALL (  408332 calls)
     fft_scatt_yz :    191.07s CPU    192.61s WALL (  408332 calls)
 
     PWSCF        :  29m12.66s CPU  29m36.43s WALL

 
   This run was terminated on:  15:15:53  19Nov2021            

=------------------------------------------------------------------------------=
   JOB DONE.
=------------------------------------------------------------------------------=
