
     Program PWSCF v.6.7MaX starts on 19Nov2021 at 14:53:50 

     This program is part of the open-source Quantum ESPRESSO suite
     for quantum simulation of materials; please cite
         "P. Giannozzi et al., J. Phys.:Condens. Matter 21 395502 (2009);
         "P. Giannozzi et al., J. Phys.:Condens. Matter 29 465901 (2017);
          URL http://www.quantum-espresso.org", 
     in publications or presentations arising from this work. More details at
     http://www.quantum-espresso.org/quote

     Parallel version (MPI), running on    10 processors

     MPI processes distributed on     1 nodes
     R & G space division:  proc/nbgrp/npool/nimage =      10
     Waiting for input...
     Reading input from standard input

     Current dimensions of program PWSCF are:
     Max number of different atomic species (ntypx) = 10
     Max number of k-points (npk) =  40000
     Max angular momentum in pseudopotentials (lmaxx) =  3
     file Zr.pbe-spn-kjpaw_psl.1.0.0.UPF: wavefunction(s)  4S 4P renormalized
     file Te.pbe-n-kjpaw_psl.1.0.0.UPF: wavefunction(s)  5S 5P renormalized

     Subspace diagonalization in iterative solution of the eigenvalue problem:
     a serial algorithm will be used

     Message from routine setup:
     using ibrav=0 with symmetry is DISCOURAGED, use correct ibrav instead
 
     Parallelization info
     --------------------
     sticks:   dense  smooth     PW     G-vecs:    dense   smooth      PW
     Min         734     293     87               115340    29174    4753
     Max         735     295     88               115345    29176    4760
     Sum        7345    2937    873              1153415   291749   47557
 


     bravais-lattice index     =            0
     lattice parameter (alat)  =      15.5510  a.u.
     unit-cell volume          =    3018.5011 (a.u.)^3
     number of atoms/cell      =           12
     number of atomic types    =            2
     number of electrons       =        84.00
     number of Kohn-Sham states=           50
     kinetic-energy cutoff     =      80.0000  Ry
     charge density cutoff     =     800.0000  Ry
     scf convergence threshold =      1.0E-10
     mixing beta               =       0.7000
     number of iterations used =            8  plain     mixing
     Exchange-correlation= SLA  PW   PBX  PBC
                           (   1   4   3   4   0   0   0)

     celldm(1)=  15.551040  celldm(2)=   0.000000  celldm(3)=   0.000000
     celldm(4)=   0.000000  celldm(5)=   0.000000  celldm(6)=   0.000000

     crystal axes: (cart. coord. in units of alat)
               a(1) = (   0.246007  -0.969268   0.000000 )  
               a(2) = (   0.246007   0.969268   0.000000 )  
               a(3) = (   0.000000   0.000000   1.683031 )  

     reciprocal axes: (cart. coord. in units 2 pi/alat)
               b(1) = (  2.032465 -0.515853  0.000000 )  
               b(2) = (  2.032465  0.515853  0.000000 )  
               b(3) = (  0.000000  0.000000  0.594166 )  


     PseudoPot. # 1 for Zr read from file:
     pseudo/Zr.pbe-spn-kjpaw_psl.1.0.0.UPF
     MD5 check sum: 02112c41713a0468aff2bb39ef194e36
     Pseudo is Projector augmented-wave + core cor, Zval = 12.0
     Generated using &quot;atomic&quot; code by A. Dal Corso  v.6.2.2
     Shape of augmentation charge: PSQ
     Using radial grid of 1225 points,  6 beta functions with: 
                l(1) =   0
                l(2) =   0
                l(3) =   1
                l(4) =   1
                l(5) =   2
                l(6) =   2
     Q(r) pseudized with 0 coefficients 


     PseudoPot. # 2 for Te read from file:
     pseudo/Te.pbe-n-kjpaw_psl.1.0.0.UPF
     MD5 check sum: 66247bff2bd9dbf220fbb0bf5ab56e9d
     Pseudo is Projector augmented-wave + core cor, Zval =  6.0
     Generated using &quot;atomic&quot; code by A. Dal Corso  v.6.3
     Shape of augmentation charge: PSQ
     Using radial grid of 1245 points,  6 beta functions with: 
                l(1) =   0
                l(2) =   0
                l(3) =   1
                l(4) =   1
                l(5) =   2
                l(6) =   2
     Q(r) pseudized with 0 coefficients 


     atomic species   valence    mass     pseudopotential
        Zr            12.00    91.22000     Zr( 1.00)
        Te             6.00   127.60000     Te( 1.00)

      8 Sym. Ops., with inversion, found ( 4 have fractional translation)



   Cartesian axes

     site n.     atom                  positions (alat units)
         1           Zr  tau(   1) = (   0.0000000   0.6130338   0.4207578  )
         2           Zr  tau(   2) = (   0.2460067   0.3562343   1.2622733  )
         3           Te  tau(   3) = (   0.2460067   0.3343976   0.4207578  )
         4           Te  tau(   4) = (   0.0000000   0.6348705   1.2622733  )
         5           Te  tau(   5) = (   0.2460067   0.8064453   0.2497558  )
         6           Te  tau(   6) = (   0.0000000   0.1628228   1.4332752  )
         7           Te  tau(   7) = (   0.2460067   0.8064453   0.5917597  )
         8           Te  tau(   8) = (   0.0000000   0.1628228   1.0912714  )
         9           Te  tau(   9) = (   0.0000000   0.4018820   0.7184701  )
        10           Te  tau(  10) = (   0.2460067   0.5673861   0.9645610  )
        11           Te  tau(  11) = (   0.0000000   0.4018820   0.1230454  )
        12           Te  tau(  12) = (   0.2460067   0.5673861   1.5599856  )

     number of k points=    63  Methfessel-Paxton smearing, width (Ry)=  0.0030
                       cart. coord. in units 2pi/alat
        k(    1) = (   0.0000000   0.0000000   0.0000000), wk =   0.0078125
        k(    2) = (   0.0000000   0.0000000   0.1485415), wk =   0.0156250
        k(    3) = (   0.0000000   0.0000000  -0.2970830), wk =   0.0078125
        k(    4) = (   0.2540581   0.0644816   0.0000000), wk =   0.0312500
        k(    5) = (   0.2540581   0.0644816   0.1485415), wk =   0.0625000
        k(    6) = (   0.2540581   0.0644816  -0.2970830), wk =   0.0312500
        k(    7) = (   0.5081162   0.1289633   0.0000000), wk =   0.0312500
        k(    8) = (   0.5081162   0.1289633   0.1485415), wk =   0.0625000
        k(    9) = (   0.5081162   0.1289633  -0.2970830), wk =   0.0312500
        k(   10) = (   0.7621743   0.1934449   0.0000000), wk =   0.0312500
        k(   11) = (   0.7621743   0.1934449   0.1485415), wk =   0.0625000
        k(   12) = (   0.7621743   0.1934449  -0.2970830), wk =   0.0312500
        k(   13) = (  -1.0162324  -0.2579266   0.0000000), wk =   0.0156250
        k(   14) = (  -1.0162324  -0.2579266   0.1485415), wk =   0.0312500
        k(   15) = (  -1.0162324  -0.2579266  -0.2970830), wk =   0.0156250
        k(   16) = (   0.5081162   0.0000000   0.0000000), wk =   0.0156250
        k(   17) = (   0.5081162   0.0000000   0.1485415), wk =   0.0312500
        k(   18) = (   0.5081162   0.0000000  -0.2970830), wk =   0.0156250
        k(   19) = (   0.7621743   0.0644816   0.0000000), wk =   0.0312500
        k(   20) = (   0.7621743   0.0644816   0.1485415), wk =   0.0625000
        k(   21) = (   0.7621743   0.0644816  -0.2970830), wk =   0.0312500
        k(   22) = (   1.0162324   0.1289633   0.0000000), wk =   0.0312500
        k(   23) = (   1.0162324   0.1289633   0.1485415), wk =   0.0625000
        k(   24) = (   1.0162324   0.1289633  -0.2970830), wk =   0.0312500
        k(   25) = (  -0.7621743  -0.3224082   0.0000000), wk =   0.0312500
        k(   26) = (  -0.7621743  -0.3224082   0.1485415), wk =   0.0625000
        k(   27) = (  -0.7621743  -0.3224082  -0.2970830), wk =   0.0312500
        k(   28) = (  -0.5081162  -0.2579266   0.0000000), wk =   0.0312500
        k(   29) = (  -0.5081162  -0.2579266   0.1485415), wk =   0.0625000
        k(   30) = (  -0.5081162  -0.2579266  -0.2970830), wk =   0.0312500
        k(   31) = (  -0.2540581  -0.1934449   0.0000000), wk =   0.0312500
        k(   32) = (  -0.2540581  -0.1934449   0.1485415), wk =   0.0625000
        k(   33) = (  -0.2540581  -0.1934449  -0.2970830), wk =   0.0312500
        k(   34) = (   0.0000000  -0.1289633   0.0000000), wk =   0.0156250
        k(   35) = (   0.0000000  -0.1289633   0.1485415), wk =   0.0312500
        k(   36) = (   0.0000000  -0.1289633  -0.2970830), wk =   0.0156250
        k(   37) = (   1.0162324   0.0000000   0.0000000), wk =   0.0156250
        k(   38) = (   1.0162324   0.0000000   0.1485415), wk =   0.0312500
        k(   39) = (   1.0162324   0.0000000  -0.2970830), wk =   0.0156250
        k(   40) = (   1.2702905   0.0644816   0.0000000), wk =   0.0312500
        k(   41) = (   1.2702905   0.0644816   0.1485415), wk =   0.0625000
        k(   42) = (   1.2702905   0.0644816  -0.2970830), wk =   0.0312500
        k(   43) = (  -0.5081162  -0.3868899   0.0000000), wk =   0.0312500
        k(   44) = (  -0.5081162  -0.3868899   0.1485415), wk =   0.0625000
        k(   45) = (  -0.5081162  -0.3868899  -0.2970830), wk =   0.0312500
        k(   46) = (  -0.2540581  -0.3224082   0.0000000), wk =   0.0312500
        k(   47) = (  -0.2540581  -0.3224082   0.1485415), wk =   0.0625000
        k(   48) = (  -0.2540581  -0.3224082  -0.2970830), wk =   0.0312500
        k(   49) = (   0.0000000  -0.2579266   0.0000000), wk =   0.0156250
        k(   50) = (   0.0000000  -0.2579266   0.1485415), wk =   0.0312500
        k(   51) = (   0.0000000  -0.2579266  -0.2970830), wk =   0.0156250
        k(   52) = (   1.5243485   0.0000000   0.0000000), wk =   0.0156250
        k(   53) = (   1.5243485   0.0000000   0.1485415), wk =   0.0312500
        k(   54) = (   1.5243485   0.0000000  -0.2970830), wk =   0.0156250
        k(   55) = (  -0.2540581  -0.4513715   0.0000000), wk =   0.0312500
        k(   56) = (  -0.2540581  -0.4513715   0.1485415), wk =   0.0625000
        k(   57) = (  -0.2540581  -0.4513715  -0.2970830), wk =   0.0312500
        k(   58) = (   0.0000000  -0.3868899   0.0000000), wk =   0.0156250
        k(   59) = (   0.0000000  -0.3868899   0.1485415), wk =   0.0312500
        k(   60) = (   0.0000000  -0.3868899  -0.2970830), wk =   0.0156250
        k(   61) = (  -2.0324647   0.0000000   0.0000000), wk =   0.0078125
        k(   62) = (  -2.0324647   0.0000000   0.1485415), wk =   0.0156250
        k(   63) = (  -2.0324647   0.0000000  -0.2970830), wk =   0.0078125

     Dense  grid:  1153415 G-vectors     FFT dimensions: ( 144, 144, 240)

     Smooth grid:   291749 G-vectors     FFT dimensions: (  90,  90, 150)

     Estimated max dynamical RAM per process >     657.19 MB

     Estimated total dynamical RAM >       6.42 GB

     Initial potential from superposition of free atoms

     starting charge   83.99353, renormalised to   84.00000
     Starting wfcs are   66 randomized atomic wfcs
     Checking if some PAW data can be deallocated... 

     total cpu time spent up to now is       37.7 secs

     Self-consistent Calculation

     iteration #  1     ecut=    80.00 Ry     beta= 0.70
     Davidson diagonalization with overlap
     ethr =  1.00E-02,  avg # of iterations =  2.0

     Threshold (ethr) on eigenvalues was too large:
     Diagonalizing with lowered threshold

     Davidson diagonalization with overlap
     ethr =  3.69E-04,  avg # of iterations =  4.1

     total cpu time spent up to now is      199.0 secs

     total energy              =   -4240.71043467 Ry
     estimated scf accuracy    <       0.42354029 Ry

     iteration #  2     ecut=    80.00 Ry     beta= 0.70
     Davidson diagonalization with overlap
     ethr =  5.04E-04,  avg # of iterations =  7.3

     total cpu time spent up to now is      309.4 secs

     total energy              =   -4240.61737756 Ry
     estimated scf accuracy    <       2.17539432 Ry

     iteration #  3     ecut=    80.00 Ry     beta= 0.70
     Davidson diagonalization with overlap
     ethr =  5.04E-04,  avg # of iterations =  5.1

     total cpu time spent up to now is      404.6 secs

     total energy              =   -4240.90737560 Ry
     estimated scf accuracy    <       0.02140492 Ry

     iteration #  4     ecut=    80.00 Ry     beta= 0.70
     Davidson diagonalization with overlap
     c_bands:  1 eigenvalues not converged
     c_bands:  1 eigenvalues not converged
     c_bands:  1 eigenvalues not converged
     c_bands:  1 eigenvalues not converged
     c_bands:  1 eigenvalues not converged
     c_bands:  2 eigenvalues not converged
     c_bands:  1 eigenvalues not converged
     ethr =  2.55E-05,  avg # of iterations = 15.1

     total cpu time spent up to now is      564.1 secs

     total energy              =   -4240.92619603 Ry
     estimated scf accuracy    <       0.09499123 Ry

     iteration #  5     ecut=    80.00 Ry     beta= 0.70
     Davidson diagonalization with overlap
     ethr =  2.55E-05,  avg # of iterations =  4.8

     total cpu time spent up to now is      647.9 secs

     total energy              =   -4240.92811814 Ry
     estimated scf accuracy    <       0.02287358 Ry

     iteration #  6     ecut=    80.00 Ry     beta= 0.70
     Davidson diagonalization with overlap
     ethr =  2.55E-05,  avg # of iterations =  2.9

     total cpu time spent up to now is      722.3 secs

     total energy              =   -4240.92927500 Ry
     estimated scf accuracy    <       0.00306878 Ry

     iteration #  7     ecut=    80.00 Ry     beta= 0.70
     Davidson diagonalization with overlap
     c_bands:  1 eigenvalues not converged
     c_bands:  1 eigenvalues not converged
     c_bands:  1 eigenvalues not converged
     c_bands:  1 eigenvalues not converged
     c_bands:  2 eigenvalues not converged
     ethr =  3.65E-06,  avg # of iterations = 13.3

     total cpu time spent up to now is      849.2 secs

     total energy              =   -4240.93101405 Ry
     estimated scf accuracy    <       0.00291207 Ry

     iteration #  8     ecut=    80.00 Ry     beta= 0.70
     Davidson diagonalization with overlap
     c_bands:  1 eigenvalues not converged
     ethr =  3.47E-06,  avg # of iterations =  2.3

     total cpu time spent up to now is      918.4 secs

     total energy              =   -4240.93100133 Ry
     estimated scf accuracy    <       0.00067328 Ry

     iteration #  9     ecut=    80.00 Ry     beta= 0.70
     Davidson diagonalization with overlap
     ethr =  8.02E-07,  avg # of iterations =  5.5

     total cpu time spent up to now is     1001.1 secs

     total energy              =   -4240.93113352 Ry
     estimated scf accuracy    <       0.00001012 Ry

     iteration # 10     ecut=    80.00 Ry     beta= 0.70
     Davidson diagonalization with overlap
     c_bands:  1 eigenvalues not converged
     ethr =  1.21E-08,  avg # of iterations = 11.0

     total cpu time spent up to now is     1138.2 secs

     total energy              =   -4240.93115835 Ry
     estimated scf accuracy    <       0.00002227 Ry

     iteration # 11     ecut=    80.00 Ry     beta= 0.70
     Davidson diagonalization with overlap
     ethr =  1.21E-08,  avg # of iterations =  3.3

     total cpu time spent up to now is     1217.2 secs

     total energy              =   -4240.93116119 Ry
     estimated scf accuracy    <       0.00000030 Ry

     iteration # 12     ecut=    80.00 Ry     beta= 0.70
     Davidson diagonalization with overlap
     c_bands:  1 eigenvalues not converged
     ethr =  3.59E-10,  avg # of iterations = 10.1

     total cpu time spent up to now is     1352.6 secs

     total energy              =   -4240.93116151 Ry
     estimated scf accuracy    <       0.00000117 Ry

     iteration # 13     ecut=    80.00 Ry     beta= 0.70
     Davidson diagonalization with overlap
     c_bands:  1 eigenvalues not converged
     ethr =  3.59E-10,  avg # of iterations =  4.6

     total cpu time spent up to now is     1438.8 secs

     total energy              =   -4240.93116159 Ry
     estimated scf accuracy    <       0.00000008 Ry

     iteration # 14     ecut=    80.00 Ry     beta= 0.70
     Davidson diagonalization with overlap
     c_bands:  1 eigenvalues not converged
     ethr =  9.31E-11,  avg # of iterations =  6.4

     total cpu time spent up to now is     1536.4 secs

     total energy              =   -4240.93116162 Ry
     estimated scf accuracy    <       0.00000003 Ry

     iteration # 15     ecut=    80.00 Ry     beta= 0.70
     Davidson diagonalization with overlap
     c_bands:  1 eigenvalues not converged
     ethr =  3.61E-11,  avg # of iterations =  1.7

     total cpu time spent up to now is     1603.8 secs

     total energy              =   -4240.93116162 Ry
     estimated scf accuracy    <          7.1E-09 Ry

     iteration # 16     ecut=    80.00 Ry     beta= 0.70
     Davidson diagonalization with overlap
     ethr =  8.41E-12,  avg # of iterations =  5.8

     total cpu time spent up to now is     1697.7 secs

     total energy              =   -4240.93116162 Ry
     estimated scf accuracy    <          2.0E-09 Ry

     iteration # 17     ecut=    80.00 Ry     beta= 0.70
     Davidson diagonalization with overlap
     ethr =  2.41E-12,  avg # of iterations =  1.6

     total cpu time spent up to now is     1753.2 secs

     total energy              =   -4240.93116162 Ry
     estimated scf accuracy    <          5.8E-10 Ry

     iteration # 18     ecut=    80.00 Ry     beta= 0.70
     Davidson diagonalization with overlap
     ethr =  6.91E-13,  avg # of iterations =  4.5

     total cpu time spent up to now is     1797.9 secs

     End of self-consistent calculation

          k = 0.0000 0.0000 0.0000 ( 36359 PWs)   bands (ev):

   -44.1597 -44.1597 -22.3059 -22.3059 -22.1994 -22.1994 -22.0802 -22.0801
    -7.6320  -7.1892  -6.8583  -6.7644  -6.6264  -5.2691  -5.1627  -4.9237
    -4.8661  -3.8673   0.4726   0.6565   0.7938   1.0406   1.4763   1.6250
     2.4098   2.5377   2.5779   2.9924   3.0558   3.0642   3.1996   3.4932
     3.5273   3.5497   3.8561   4.0379   4.0656   4.2738   4.3141   4.6193
     5.2465   5.5403   5.5557   5.5565   5.8664   6.0763   6.4473   6.7679
     6.9295   7.3125

          k = 0.0000 0.0000 0.1485 ( 36415 PWs)   bands (ev):

   -44.1597 -44.1597 -22.3059 -22.3059 -22.1994 -22.1994 -22.0802 -22.0802
    -7.5934  -7.3121  -6.8138  -6.7701  -6.4748  -5.6854  -4.9490  -4.8790
    -4.7078  -3.9829   0.5066   0.6948   0.9070   1.0616   1.0647   2.0636
     2.1304   2.4316   2.5503   3.0594   3.0703   3.1497   3.2924   3.3566
     3.6683   3.6741   3.8202   4.0221   4.0257   4.2933   4.3252   4.6409
     4.9739   5.0681   5.6866   5.9095   6.0658   6.0965   6.5722   6.7256
     6.7697   7.2957

          k = 0.0000 0.0000-0.2971 ( 36410 PWs)   bands (ev):

   -44.1597 -44.1597 -22.3059 -22.3059 -22.1994 -22.1994 -22.0802 -22.0802
    -7.4809  -7.4809  -6.7856  -6.7856  -6.1201  -6.1201  -4.9106  -4.9106
    -4.2913  -4.2913   0.6761   0.6761   0.8357   0.8357   1.4819   1.4819
     2.4880   2.4880   2.7063   2.7063   3.0946   3.0946   3.3211   3.3211
     3.8130   3.8130   3.8765   3.8765   4.3103   4.3103   4.4299   4.4299
     4.7371   4.7371   5.9583   5.9583   6.2620   6.2620   6.3820   6.3820
     7.1891   7.1891

          k = 0.2541 0.0645 0.0000 ( 36396 PWs)   bands (ev):

   -44.1593 -44.1593 -22.3039 -22.3039 -22.2095 -22.2095 -22.0789 -22.0789
    -7.5185  -7.1003  -6.7590  -6.7191  -6.5700  -5.2399  -5.1439  -4.8836
    -4.8252  -4.0026   0.5603   0.7938   0.9323   1.1580   1.2468   1.5252
     1.9490   2.1842   2.2051   2.5144   2.6002   2.9671   3.5284   3.6225
     3.6472   3.6857   3.7179   3.8287   4.0582   4.1030   4.1943   4.2763
     4.4564   4.7526   5.6500   6.0078   6.3165   6.5384   6.6091   6.8267
     7.0027   7.1455

          k = 0.2541 0.0645 0.1485 ( 36423 PWs)   bands (ev):

   -44.1593 -44.1593 -22.3039 -22.3039 -22.2095 -22.2095 -22.0789 -22.0789
    -7.4809  -7.2110  -6.7496  -6.7238  -6.3988  -5.6299  -4.9264  -4.8403
    -4.7086  -4.0952   0.5821   0.8347   0.9744   1.0059   1.1359   1.6318
     1.8820   2.2862   2.5184   2.5524   2.5943   2.9070   3.2391   3.3039
     3.6215   3.6909   3.7950   3.8731   3.9868   4.0764   4.2129   4.2736
     4.7068   5.0910   5.7772   5.8115   6.2279   6.2816   6.4920   6.6582
     7.2708   7.2750

          k = 0.2541 0.0645-0.2971 ( 36436 PWs)   bands (ev):

   -44.1593 -44.1593 -22.3039 -22.3039 -22.2095 -22.2095 -22.0789 -22.0789
    -7.3719  -7.3719  -6.7361  -6.7361  -6.0467  -6.0467  -4.8774  -4.8774
    -4.3514  -4.3514   0.7099   0.7099   0.9395   0.9395   1.3249   1.3249
     2.2650   2.2650   2.6272   2.6272   2.7411   2.7411   3.0746   3.0746
     3.5737   3.5737   3.8378   3.8378   4.0024   4.0024   4.2676   4.2676
     5.2300   5.2300   5.7327   5.7327   6.0564   6.0564   6.4859   6.4859
     7.4297   7.4299

          k = 0.5081 0.1290 0.0000 ( 36499 PWs)   bands (ev):

   -44.1584 -44.1584 -22.2992 -22.2992 -22.2339 -22.2339 -22.0758 -22.0758
    -7.2023  -6.8898  -6.5900  -6.4752  -6.3818  -5.1995  -5.1377  -4.7778
    -4.7243  -4.4123   0.4825   0.7481   0.8000   1.1638   1.3328   1.4889
     1.6518   1.8093   1.9619   2.1747   2.1889   2.2563   2.5394   3.1824
     3.3175   3.3940   3.4389   3.5514   3.7660   3.8326   3.9943   4.1509
     4.7120   5.3269   5.3918   5.8079   5.8913   6.5255   6.5395   6.8129
     7.3537   7.5641

          k = 0.5081 0.1290 0.1485 ( 36476 PWs)   bands (ev):

   -44.1584 -44.1584 -22.2992 -22.2992 -22.2339 -22.2339 -22.0758 -22.0758
    -7.1691  -6.9539  -6.5928  -6.5630  -6.1698  -5.4991  -4.9360  -4.7533
    -4.7055  -4.4451   0.5012   0.7616   0.9297   1.0949   1.2034   1.4267
     1.4679   1.6892   2.0432   2.0625   2.3330   2.5773   2.8757   3.2196
     3.3049   3.3921   3.4620   3.5667   3.6179   3.8035   3.8493   4.2111
     4.4339   4.6178   5.9819   6.0477   6.2151   6.5375   6.5798   6.6992
     7.2031   7.4755

          k = 0.5081 0.1290-0.2971 ( 36466 PWs)   bands (ev):

   -44.1584 -44.1584 -22.2992 -22.2992 -22.2339 -22.2339 -22.0758 -22.0758
    -7.0762  -7.0762  -6.5925  -6.5925  -5.8479  -5.8479  -4.8248  -4.8248
    -4.5509  -4.5509   0.6227   0.6227   1.1055   1.1055   1.2708   1.2708
     1.3589   1.3589   2.0612   2.0612   2.7998   2.7998   3.0882   3.0882
     3.3064   3.3064   3.5391   3.5391   3.7131   3.7131   3.8589   3.8589
     4.3015   4.3015   6.2079   6.2079   6.5286   6.5286   6.7578   6.7578
     7.0826   7.0826

          k = 0.7622 0.1934 0.0000 ( 36521 PWs)   bands (ev):

   -44.1575 -44.1574 -22.2943 -22.2943 -22.2582 -22.2582 -22.0727 -22.0727
    -6.8224  -6.7108  -6.3244  -6.0557  -6.0224  -5.2803  -5.2668  -5.0457
    -4.6569  -4.6218  -0.0003   0.3206   0.6678   1.1702   1.1756   1.2242
     1.4784   1.5865   1.9005   1.9396   2.2599   2.4545   2.5409   2.7192
     2.7445   3.2494   3.2751   3.3249   3.6460   3.6508   3.7793   3.8820
     4.0220   4.5715   5.7382   6.1334   6.2137   6.6293   6.6915   6.7820
     7.1756   7.5401

          k = 0.7622 0.1934 0.1485 ( 36503 PWs)   bands (ev):

   -44.1574 -44.1574 -22.2943 -22.2943 -22.2582 -22.2582 -22.0727 -22.0727
    -6.8054  -6.7256  -6.3170  -6.1953  -5.8318  -5.4114  -5.1881  -5.0673
    -4.6455  -4.6219   0.0804   0.4206   0.5563   0.9644   1.1757   1.2103
     1.4938   1.6402   1.7267   2.0930   2.1286   2.6505   2.6569   2.7984
     2.8584   3.1718   3.2747   3.3628   3.4504   3.6547   3.6953   3.8734
     4.0188   4.8160   5.3097   6.2092   6.5138   6.5467   6.6931   6.8820
     6.9512   7.4279

          k = 0.7622 0.1934-0.2971 ( 36522 PWs)   bands (ev):

   -44.1574 -44.1574 -22.2943 -22.2943 -22.2582 -22.2582 -22.0727 -22.0727
    -6.7645  -6.7645  -6.2829  -6.2829  -5.6090  -5.6090  -5.1209  -5.1209
    -4.6283  -4.6283   0.2902   0.2902   0.7265   0.7265   1.0644   1.0644
     1.5754   1.5754   1.9623   1.9623   2.3789   2.3789   2.7967   2.7967
     2.9897   2.9897   3.4244   3.4244   3.5590   3.5590   3.7714   3.7714
     4.2259   4.2259   5.9418   5.9418   6.3466   6.3466   6.7815   6.7815
     7.2706   7.2706

          k =-1.0162-0.2579 0.0000 ( 36506 PWs)   bands (ev):

   -44.1571 -44.1571 -22.2921 -22.2921 -22.2684 -22.2684 -22.0714 -22.0714
    -6.6762  -6.6560  -5.7610  -5.7519  -5.6100  -5.5955  -5.5857  -5.5840
    -4.5985  -4.5824   0.1021   0.1298   0.4535   0.4711   1.0136   1.0208
     1.4718   1.6781   2.2173   2.3241   2.3243   2.3284   2.8008   2.8386
     2.8442   2.9705   3.2546   3.2742   3.3005   3.5056   3.5684   3.6682
     3.8766   3.8894   6.3181   6.3514   6.4191   6.5052   6.9043   6.9614
     6.9698   6.9797

          k =-1.0162-0.2579 0.1485 ( 36506 PWs)   bands (ev):

   -44.1571 -44.1571 -22.2921 -22.2921 -22.2684 -22.2684 -22.0714 -22.0714
    -6.6727  -6.6583  -5.7552  -5.7468  -5.6700  -5.6667  -5.5227  -5.5164
    -4.6029  -4.5916   0.0189   0.0283   0.6624   0.6656   1.0408   1.0690
     1.4627   1.5669   1.9194   1.9748   2.3552   2.3644   2.7641   2.7771
     2.9536   2.9586   3.1994   3.2401   3.5213   3.5523   3.7045   3.7342
     4.1293   4.1445   5.8235   5.8290   6.3552   6.4257   6.8311   6.8720
     7.1983   7.2169

          k =-1.0162-0.2579-0.2971 ( 36528 PWs)   bands (ev):

   -44.1571 -44.1571 -22.2921 -22.2921 -22.2684 -22.2684 -22.0714 -22.0714
    -6.6649  -6.6649  -5.7395  -5.7395  -5.7063  -5.7063  -5.4878  -5.4878
    -4.6042  -4.6042  -0.0339  -0.0339   0.8858   0.8858   1.1023   1.1023
     1.4674   1.4674   1.6247   1.6247   2.3585   2.3585   2.7959   2.7959
     2.9256   2.9256   3.2331   3.2331   3.5689   3.5689   3.7646   3.7646
     4.6847   4.6847   5.1885   5.1885   6.3253   6.3253   6.8653   6.8653
     7.2591   7.2591

          k = 0.5081 0.0000 0.0000 ( 36503 PWs)   bands (ev):

   -44.1584 -44.1584 -22.2992 -22.2992 -22.2339 -22.2339 -22.0758 -22.0758
    -7.2087  -6.8929  -6.5820  -6.4766  -6.3765  -5.2006  -5.1339  -4.7743
    -4.7290  -4.4119   0.4805   0.7459   0.8070   1.1298   1.3282   1.4686
     1.6581   1.8135   1.9728   2.1380   2.1836   2.2393   2.5486   3.1632
     3.3215   3.3880   3.4933   3.5809   3.7735   3.8185   4.0295   4.1887
     4.7144   5.3329   5.3965   5.8399   5.8716   6.4860   6.4880   6.8481
     7.3840   7.5725

          k = 0.5081 0.0000 0.1485 ( 36453 PWs)   bands (ev):

   -44.1584 -44.1584 -22.2992 -22.2992 -22.2339 -22.2339 -22.0758 -22.0758
    -7.1755  -6.9588  -6.5843  -6.5578  -6.1698  -5.5001  -4.9294  -4.7548
    -4.7068  -4.4459   0.4987   0.7564   0.9361   1.0969   1.1729   1.4166
     1.4560   1.6874   2.0389   2.0627   2.3299   2.5519   2.8674   3.2057
     3.2985   3.4212   3.4863   3.5935   3.6111   3.8440   3.8489   4.2456
     4.4496   4.6209   5.9855   6.0644   6.2171   6.4861   6.5451   6.7292
     7.2296   7.4787

          k = 0.5081 0.0000-0.2971 ( 36452 PWs)   bands (ev):

   -44.1584 -44.1584 -22.2992 -22.2992 -22.2339 -22.2339 -22.0758 -22.0758
    -7.0823  -7.0823  -6.5846  -6.5846  -5.8491  -5.8491  -4.8204  -4.8204
    -4.5536  -4.5536   0.6180   0.6180   1.1063   1.1063   1.2862   1.2862
     1.3201   1.3201   2.0603   2.0603   2.7905   2.7905   3.0628   3.0628
     3.2996   3.2996   3.6015   3.6015   3.7167   3.7167   3.8624   3.8624
     4.3271   4.3271   6.2231   6.2231   6.4951   6.4951   6.7711   6.7711
     7.0847   7.0847

          k = 0.7622 0.0645 0.0000 ( 36505 PWs)   bands (ev):

   -44.1575 -44.1574 -22.2943 -22.2943 -22.2582 -22.2582 -22.0727 -22.0727
    -6.8320  -6.7094  -6.3147  -6.0587  -6.0213  -5.2809  -5.2613  -5.0455
    -4.6515  -4.6285  -0.0068   0.3325   0.6944   1.1596   1.2122   1.2376
     1.4333   1.5415   1.8771   1.9496   2.2053   2.4374   2.5261   2.6986
     2.7171   3.3028   3.3174   3.3264   3.5948   3.6660   3.8359   3.9086
     4.0402   4.6163   5.7370   6.1482   6.1753   6.5946   6.7377   6.7487
     7.2012   7.6680

          k = 0.7622 0.0645 0.1485 ( 36509 PWs)   bands (ev):

   -44.1575 -44.1574 -22.2943 -22.2943 -22.2582 -22.2582 -22.0727 -22.0727
    -6.8140  -6.7264  -6.3078  -6.1927  -5.8341  -5.4120  -5.1838  -5.0663
    -4.6418  -4.6267   0.0768   0.4285   0.5656   0.9895   1.1859   1.2108
     1.4537   1.6445   1.7407   2.0287   2.0498   2.6499   2.6564   2.7659
     2.8505   3.1713   3.3447   3.3857   3.4103   3.6736   3.7283   3.8908
     4.0683   4.8153   5.3373   6.1952   6.5148   6.5292   6.7111   6.8809
     6.9346   7.4463

          k = 0.7622 0.0645-0.2971 ( 36472 PWs)   bands (ev):

   -44.1574 -44.1574 -22.2943 -22.2943 -22.2582 -22.2582 -22.0727 -22.0727
    -6.7699  -6.7699  -6.2759  -6.2759  -5.6112  -5.6112  -5.1180  -5.1180
    -4.6288  -4.6288   0.2924   0.2924   0.7233   0.7233   1.0909   1.0909
     1.5711   1.5711   1.9084   1.9084   2.3436   2.3436   2.7865   2.7865
     2.9886   2.9886   3.4935   3.4935   3.5562   3.5562   3.7658   3.7658
     4.2509   4.2509   5.9653   5.9653   6.3481   6.3481   6.7466   6.7466
     7.2964   7.2964

          k = 1.0162 0.1290 0.0000 ( 36514 PWs)   bands (ev):

   -44.1571 -44.1571 -22.2921 -22.2921 -22.2684 -22.2684 -22.0714 -22.0714
    -6.6762  -6.6560  -5.7603  -5.7526  -5.6101  -5.5955  -5.5867  -5.5830
    -4.5985  -4.5824   0.0964   0.1356   0.4472   0.4775   1.0087   1.0277
     1.4767   1.6694   2.2221   2.3057   2.3199   2.3333   2.8041   2.8371
     2.8743   2.9643   3.2229   3.2967   3.3104   3.5120   3.5451   3.6762
     3.8625   3.9002   6.3174   6.3535   6.4144   6.5104   6.9124   6.9646
     6.9666   6.9819

          k = 1.0162 0.1290 0.1485 ( 36524 PWs)   bands (ev):

   -44.1571 -44.1571 -22.2921 -22.2921 -22.2684 -22.2684 -22.0714 -22.0714
    -6.6727  -6.6583  -5.7546  -5.7474  -5.6705  -5.6661  -5.5230  -5.5162
    -4.6029  -4.5916   0.0169   0.0299   0.6601   0.6686   1.0452   1.0658
     1.4667   1.5653   1.9191   1.9695   2.3470   2.3604   2.7220   2.8294
     2.9648   2.9778   3.1731   3.2425   3.5178   3.5822   3.6961   3.7071
     4.1308   4.1489   5.8115   5.8430   6.3526   6.4281   6.8379   6.8712
     7.2010   7.2142

          k = 1.0162 0.1290-0.2971 ( 36516 PWs)   bands (ev):

   -44.1571 -44.1571 -22.2921 -22.2921 -22.2684 -22.2684 -22.0714 -22.0714
    -6.6649  -6.6649  -5.7395  -5.7395  -5.7063  -5.7063  -5.4878  -5.4878
    -4.6042  -4.6042  -0.0340  -0.0340   0.8851   0.8851   1.1052   1.1052
     1.4660   1.4660   1.6257   1.6257   2.3480   2.3480   2.7783   2.7783
     2.9738   2.9738   3.2118   3.2118   3.5761   3.5761   3.7556   3.7556
     4.6850   4.6850   5.1903   5.1903   6.3251   6.3251   6.8679   6.8679
     7.2589   7.2589

          k =-0.7622-0.3224 0.0000 ( 36511 PWs)   bands (ev):

   -44.1575 -44.1574 -22.2943 -22.2943 -22.2582 -22.2582 -22.0727 -22.0727
    -6.8070  -6.7144  -6.3381  -6.0514  -6.0241  -5.2795  -5.2746  -5.0460
    -4.6616  -4.6153   0.0092   0.3042   0.6328   1.1503   1.1847   1.2044
     1.5005   1.6579   1.9275   1.9460   2.3474   2.4707   2.5639   2.7426
     2.7811   3.1582   3.2412   3.3556   3.6013   3.6532   3.7561   3.8464
     3.9913   4.5001   5.7403   6.1305   6.2567   6.6107   6.6821   6.8496
     7.1344   7.5438

          k =-0.7622-0.3224 0.1485 ( 36492 PWs)   bands (ev):

   -44.1574 -44.1574 -22.2943 -22.2943 -22.2582 -22.2582 -22.0727 -22.0727
    -6.7918  -6.7254  -6.3303  -6.1992  -5.8284  -5.4106  -5.1940  -5.0686
    -4.6485  -4.6172   0.0851   0.4111   0.5413   0.9372   1.1599   1.2145
     1.5520   1.6316   1.7051   2.1904   2.2410   2.6466   2.6676   2.8305
     2.8688   3.1754   3.1965   3.3448   3.4735   3.6220   3.6622   3.8432
     3.9368   4.8158   5.2726   6.2324   6.4961   6.5630   6.6845   6.9041
     6.9705   7.3967

          k =-0.7622-0.3224-0.2971 ( 36508 PWs)   bands (ev):

   -44.1574 -44.1574 -22.2943 -22.2943 -22.2582 -22.2582 -22.0727 -22.0727
    -6.7565  -6.7565  -6.2932  -6.2932  -5.6059  -5.6059  -5.1249  -5.1249
    -4.6277  -4.6277   0.2866   0.2866   0.7311   0.7311   1.0343   1.0343
     1.5789   1.5789   2.0272   2.0272   2.4437   2.4437   2.8158   2.8158
     2.9892   2.9892   3.3306   3.3306   3.5642   3.5642   3.7622   3.7622
     4.1915   4.1915   5.9106   5.9106   6.3429   6.3429   6.8414   6.8414
     7.2267   7.2267

          k =-0.5081-0.2579 0.0000 ( 36480 PWs)   bands (ev):

   -44.1584 -44.1584 -22.2992 -22.2992 -22.2339 -22.2339 -22.0758 -22.0758
    -7.1858  -6.8830  -6.6089  -6.4718  -6.3951  -5.1971  -5.1469  -4.7835
    -4.7161  -4.4132   0.4887   0.7469   0.7840   1.2612   1.3427   1.5412
     1.6422   1.8040   1.9393   2.2118   2.2395   2.2867   2.5214   3.2344
     3.3161   3.3169   3.4101   3.4521   3.7362   3.8409   3.9437   4.0747
     4.7038   5.3150   5.3730   5.7348   5.9419   6.6233   6.6596   6.7285
     7.2779   7.5547

          k =-0.5081-0.2579 0.1485 ( 36485 PWs)   bands (ev):

   -44.1584 -44.1584 -22.2992 -22.2992 -22.2339 -22.2339 -22.0758 -22.0758
    -7.1528  -6.9419  -6.6129  -6.5772  -6.1696  -5.4967  -4.9511  -4.7511
    -4.7018  -4.4432   0.5080   0.7694   0.9149   1.0908   1.2886   1.4332
     1.5204   1.6887   2.0541   2.0657   2.3385   2.6351   2.8943   3.2547
     3.2895   3.3200   3.4420   3.4703   3.6210   3.7656   3.8276   4.1373
     4.3881   4.6104   5.9532   6.0275   6.2114   6.6245   6.6559   6.6746
     7.1368   7.4714

          k =-0.5081-0.2579-0.2971 ( 36478 PWs)   bands (ev):

   -44.1584 -44.1584 -22.2992 -22.2992 -22.2339 -22.2339 -22.0758 -22.0758
    -7.0606  -7.0606  -6.6123  -6.6123  -5.8450  -5.8450  -4.8349  -4.8349
    -4.5448  -4.5448   0.6335   0.6335   1.1025   1.1025   1.2554   1.2554
     1.4392   1.4392   2.0624   2.0624   2.8242   2.8242   3.1551   3.1551
     3.3218   3.3218   3.3878   3.3878   3.7008   3.7008   3.8493   3.8493
     4.2372   4.2372   6.1694   6.1694   6.5990   6.5990   6.7351   6.7351
     7.0817   7.0817

          k =-0.2541-0.1934 0.0000 ( 36410 PWs)   bands (ev):

   -44.1593 -44.1593 -22.3039 -22.3039 -22.2095 -22.2095 -22.0789 -22.0789
    -7.5067  -7.0888  -6.7566  -6.7352  -6.5874  -5.2381  -5.1512  -4.8907
    -4.8166  -4.0036   0.5930   0.8691   0.9421   1.1813   1.2781   1.5264
     1.9697   2.2027   2.2111   2.4776   2.5770   3.0374   3.4101   3.5138
     3.5756   3.6837   3.7745   3.8232   3.9965   4.1012   4.1682   4.2421
     4.3975   4.7198   5.6973   6.0210   6.3525   6.5712   6.6013   6.8486
     7.0004   7.0713

          k =-0.2541-0.1934 0.1485 ( 36427 PWs)   bands (ev):

   -44.1593 -44.1593 -22.3039 -22.3039 -22.2095 -22.2095 -22.0789 -22.0789
    -7.4691  -7.1988  -6.7625  -6.7383  -6.4031  -5.6282  -4.9441  -4.8362
    -4.7019  -4.0949   0.6085   0.8954   1.0066   1.0433   1.1511   1.6490
     1.8825   2.2891   2.4954   2.5438   2.6043   2.9139   3.2371   3.3262
     3.4880   3.6296   3.7484   3.8787   3.9679   4.0613   4.1599   4.2219
     4.6867   5.0699   5.7771   5.8090   6.1939   6.3212   6.5757   6.6780
     7.2289   7.2654

          k =-0.2541-0.1934-0.2971 ( 36422 PWs)   bands (ev):

   -44.1593 -44.1593 -22.3039 -22.3039 -22.2095 -22.2095 -22.0789 -22.0789
    -7.3598  -7.3598  -6.7519  -6.7519  -6.0457  -6.0457  -4.8840  -4.8840
    -4.3481  -4.3481   0.7288   0.7288   1.0057   1.0057   1.3347   1.3347
     2.2636   2.2636   2.5898   2.5898   2.7587   2.7587   3.1067   3.1067
     3.4822   3.4822   3.7999   3.7999   3.9964   3.9964   4.2106   4.2106
     5.2199   5.2199   5.6956   5.6956   6.0436   6.0436   6.5755   6.5755
     7.4068   7.4072

          k = 0.0000-0.1290 0.0000 ( 36417 PWs)   bands (ev):

   -44.1597 -44.1597 -22.3059 -22.3059 -22.1994 -22.1994 -22.0802 -22.0801
    -7.6258  -7.1822  -6.8570  -6.7734  -6.6367  -5.2683  -5.1665  -4.9290
    -4.8604  -3.8680   0.4997   0.6991   0.7997   1.0436   1.5000   1.6351
     2.4138   2.5370   2.5849   3.0005   3.0586   3.0944   3.1974   3.4322
     3.4564   3.5392   3.8005   4.0195   4.0656   4.2210   4.2650   4.6210
     5.2395   5.5071   5.5636   5.5663   5.8788   6.1172   6.4996   6.7360
     6.9305   7.2961

          k = 0.0000-0.1290 0.1485 ( 36419 PWs)   bands (ev):

   -44.1597 -44.1597 -22.3059 -22.3059 -22.1994 -22.1994 -22.0802 -22.0802
    -7.5872  -7.3054  -6.8195  -6.7784  -6.4784  -5.6846  -4.9595  -4.8760
    -4.7042  -3.9828   0.5296   0.7373   0.9231   1.0572   1.0852   2.0724
     2.1452   2.4359   2.5568   3.0648   3.0837   3.1457   3.2467   3.3159
     3.6602   3.6729   3.7576   3.9798   4.0206   4.2472   4.2797   4.6426
     4.9725   5.0536   5.6933   5.9117   6.0759   6.1061   6.5611   6.7694
     6.7707   7.4388

          k = 0.0000-0.1290-0.2971 ( 36464 PWs)   bands (ev):

   -44.1597 -44.1597 -22.3059 -22.3059 -22.1994 -22.1994 -22.0802 -22.0802
    -7.4745  -7.4745  -6.7941  -6.7941  -6.1199  -6.1199  -4.9141  -4.9141
    -4.2898  -4.2898   0.7078   0.7078   0.8491   0.8491   1.4918   1.4918
     2.4932   2.4932   2.7168   2.7168   3.0896   3.0896   3.2785   3.2785
     3.7894   3.7894   3.8717   3.8717   4.2282   4.2282   4.4416   4.4416
     4.7381   4.7381   5.9414   5.9414   6.2852   6.2852   6.3832   6.3832
     7.1959   7.1960

          k = 1.0162 0.0000 0.0000 ( 36499 PWs)   bands (ev):

   -44.1571 -44.1571 -22.2921 -22.2921 -22.2684 -22.2684 -22.0714 -22.0714
    -6.6762  -6.6560  -5.7595  -5.7534  -5.6101  -5.5955  -5.5873  -5.5824
    -4.5985  -4.5824   0.0920   0.1401   0.4430   0.4820   1.0063   1.0320
     1.4822   1.6601   2.2286   2.2867   2.3179   2.3362   2.8101   2.8273
     2.9189   2.9488   3.2080   3.3002   3.3225   3.5169   3.5219   3.6880
     3.8457   3.9100   6.3168   6.3556   6.4100   6.5152   6.9220   6.9619
     6.9677   6.9842

          k = 1.0162 0.0000 0.1485 ( 36485 PWs)   bands (ev):

   -44.1571 -44.1571 -22.2921 -22.2921 -22.2684 -22.2684 -22.0714 -22.0714
    -6.6727  -6.6583  -5.7538  -5.7482  -5.6709  -5.6657  -5.5232  -5.5160
    -4.6029  -4.5916   0.0153   0.0311   0.6589   0.6704   1.0528   1.0596
     1.4710   1.5634   1.9186   1.9642   2.3405   2.3553   2.7070   2.8475
     2.9701   3.0241   3.1334   3.2436   3.5182   3.6364   3.6519   3.6880
     4.1315   4.1539   5.8061   5.8504   6.3502   6.4304   6.8459   6.8694
     7.2067   7.2087

          k = 1.0162 0.0000-0.2971 ( 36514 PWs)   bands (ev):

   -44.1571 -44.1571 -22.2921 -22.2921 -22.2684 -22.2684 -22.0714 -22.0714
    -6.6649  -6.6649  -5.7395  -5.7395  -5.7063  -5.7063  -5.4878  -5.4878
    -4.6042  -4.6042  -0.0341  -0.0341   0.8844   0.8844   1.1081   1.1081
     1.4646   1.4646   1.6267   1.6267   2.3378   2.3378   2.7666   2.7666
     3.0243   3.0243   3.1822   3.1822   3.5838   3.5838   3.7460   3.7460
     4.6852   4.6852   5.1920   5.1920   6.3248   6.3248   6.8705   6.8705
     7.2587   7.2587

          k = 1.2703 0.0645 0.0000 ( 36468 PWs)   bands (ev):

   -44.1574 -44.1574 -22.2943 -22.2943 -22.2582 -22.2582 -22.0727 -22.0727
    -6.7941  -6.7188  -6.3480  -6.0483  -6.0254  -5.2802  -5.2790  -5.0463
    -4.6639  -4.6116   0.0160   0.2930   0.6094   1.1444   1.1873   1.1947
     1.5035   1.7091   1.9201   1.9853   2.4083   2.4891   2.5817   2.7573
     2.8029   3.0739   3.2445   3.4304   3.5435   3.5524   3.8106   3.8215
     3.9673   4.4410   5.7420   6.1342   6.2861   6.5537   6.7229   6.9044
     7.0981   7.5530

          k = 1.2703 0.0645 0.1485 ( 36490 PWs)   bands (ev):

   -44.1574 -44.1574 -22.2943 -22.2943 -22.2582 -22.2582 -22.0727 -22.0727
    -6.7806  -6.7266  -6.3398  -6.2021  -5.8260  -5.4101  -5.1982  -5.0696
    -4.6500  -4.6146   0.0882   0.4055   0.5296   0.9221   1.1499   1.2182
     1.6109   1.6279   1.6686   2.2671   2.3199   2.6534   2.6735   2.8491
     2.8741   3.0905   3.2421   3.3511   3.4282   3.5867   3.7047   3.8013
     3.8618   4.8149   5.2478   6.2529   6.4648   6.5744   6.6909   6.9317
     6.9830   7.3705

          k = 1.2703 0.0645-0.2971 ( 36480 PWs)   bands (ev):

   -44.1574 -44.1574 -22.2943 -22.2943 -22.2582 -22.2582 -22.0727 -22.0727
    -6.7507  -6.7507  -6.3006  -6.3006  -5.6037  -5.6037  -5.1278  -5.1278
    -4.6272  -4.6272   0.2838   0.2838   0.7342   0.7342   1.0170   1.0170
     1.5812   1.5812   2.0634   2.0634   2.5006   2.5006   2.8501   2.8501
     2.9769   2.9769   3.2534   3.2534   3.5766   3.5766   3.7431   3.7431
     4.1683   4.1683   5.8897   5.8897   6.3397   6.3397   6.8949   6.8949
     7.1864   7.1864

          k =-0.5081-0.3869 0.0000 ( 36463 PWs)   bands (ev):

   -44.1584 -44.1584 -22.2992 -22.2992 -22.2339 -22.2339 -22.0758 -22.0758
    -7.1677  -6.8775  -6.6269  -6.4683  -6.4097  -5.1946  -5.1563  -4.7866
    -4.7102  -4.4142   0.4973   0.7373   0.7690   1.3513   1.4006   1.5853
     1.6274   1.8217   1.9022   2.2486   2.2701   2.3019   2.5214   3.1898
     3.2891   3.3281   3.3336   3.4511   3.7012   3.7532   3.9237   4.0596
     4.6933   5.3058   5.3372   5.6724   5.9979   6.6435   6.7349   6.7738
     7.1895   7.5628

          k =-0.5081-0.3869 0.1485 ( 36477 PWs)   bands (ev):

   -44.1584 -44.1584 -22.2992 -22.2992 -22.2339 -22.2339 -22.0758 -22.0758
    -7.1348  -6.9296  -6.6318  -6.5946  -6.1693  -5.4943  -4.9650  -4.7506
    -4.6976  -4.4414   0.5160   0.7708   0.9011   1.0868   1.4051   1.4367
     1.5717   1.6825   2.0665   2.0779   2.3350   2.6848   2.9128   3.1635
     3.2956   3.3198   3.3577   3.4725   3.6236   3.7294   3.7850   4.1009
     4.3236   4.6038   5.9001   6.0327   6.2096   6.5588   6.7594   6.7891
     7.0572   7.4785

          k =-0.5081-0.3869-0.2971 ( 36492 PWs)   bands (ev):

   -44.1584 -44.1584 -22.2992 -22.2992 -22.2339 -22.2339 -22.0758 -22.0758
    -7.0435  -7.0435  -6.6336  -6.6336  -5.8420  -5.8420  -4.8447  -4.8447
    -4.5391  -4.5391   0.6435   0.6435   1.0980   1.0980   1.2453   1.2453
     1.5298   1.5298   2.0602   2.0602   2.8494   2.8494   3.2130   3.2130
     3.2549   3.2549   3.3417   3.3417   3.6692   3.6692   3.8415   3.8415
     4.1702   4.1702   6.1311   6.1311   6.6244   6.6244   6.7517   6.7517
     7.0893   7.0893

          k =-0.2541-0.3224 0.0000 ( 36485 PWs)   bands (ev):

   -44.1593 -44.1593 -22.3039 -22.3039 -22.2095 -22.2095 -22.0789 -22.0789
    -7.4891  -7.0721  -6.7561  -6.7532  -6.6151  -5.2356  -5.1619  -4.8960
    -4.8088  -4.0051   0.6205   0.9568   0.9985   1.2303   1.3506   1.5253
     2.0028   2.2140   2.2335   2.3929   2.5177   3.1582   3.2463   3.3281
     3.5211   3.6979   3.7978   3.7989   3.9782   4.0456   4.1153   4.2022
     4.3911   4.6508   5.7729   6.0333   6.3823   6.5149   6.6856   6.8810
     6.9572   7.0082

          k =-0.2541-0.3224 0.1485 ( 36445 PWs)   bands (ev):

   -44.1593 -44.1593 -22.3039 -22.3039 -22.2095 -22.2095 -22.0789 -22.0789
    -7.4513  -7.1804  -6.7827  -6.7593  -6.4087  -5.6257  -4.9654  -4.8335
    -4.6932  -4.0945   0.6281   0.9487   1.0814   1.1175   1.2184   1.6743
     1.8881   2.2831   2.4126   2.5205   2.6240   2.9149   3.2446   3.3095
     3.3295   3.5039   3.7822   3.8771   3.9352   4.0501   4.0841   4.1423
     4.6838   5.0323   5.7675   5.8240   6.1802   6.2985   6.6798   6.7232
     7.1714   7.2581

          k =-0.2541-0.3224-0.2971 ( 36442 PWs)   bands (ev):

   -44.1593 -44.1593 -22.3039 -22.3039 -22.2095 -22.2095 -22.0789 -22.0789
    -7.3417  -7.3417  -6.7754  -6.7754  -6.0442  -6.0442  -4.8933  -4.8933
    -4.3436  -4.3436   0.7386   0.7386   1.1395   1.1395   1.3496   1.3496
     2.2560   2.2560   2.5186   2.5186   2.7753   2.7753   3.1650   3.1650
     3.3076   3.3076   3.7952   3.7952   3.9963   3.9963   4.1279   4.1279
     5.2091   5.2091   5.6571   5.6571   6.0126   6.0126   6.6831   6.6831
     7.3735   7.3736

          k = 0.0000-0.2579 0.0000 ( 36445 PWs)   bands (ev):

   -44.1597 -44.1597 -22.3059 -22.3059 -22.1994 -22.1994 -22.0802 -22.0801
    -7.6103  -7.1647  -6.8539  -6.7942  -6.6637  -5.2662  -5.1760  -4.9368
    -4.8510  -3.8696   0.5496   0.8145   0.8168   1.0816   1.5536   1.6585
     2.4236   2.5307   2.6026   3.0363   3.0445   3.1920   3.1937   3.2119
     3.2450   3.5134   3.7620   3.9988   4.0653   4.0795   4.1420   4.6253
     5.2229   5.4354   5.5808   5.6335   5.9091   6.1756   6.5997   6.6488
     6.9326   7.2533

          k = 0.0000-0.2579 0.1485 ( 36452 PWs)   bands (ev):

   -44.1597 -44.1597 -22.3059 -22.3059 -22.1994 -22.1994 -22.0802 -22.0802
    -7.5715  -7.2884  -6.8353  -6.7983  -6.4867  -5.6825  -4.9812  -4.8720
    -4.6960  -3.9827   0.5666   0.8468   0.9890   1.0810   1.1133   2.0960
     2.1779   2.4465   2.5730   3.0511   3.0744   3.1358   3.1414   3.1708
     3.6406   3.6477   3.6889   3.9317   4.0169   4.1279   4.1705   4.6469
     4.9691   5.0315   5.7172   5.9176   6.0942   6.1112   6.5287   6.7730
     6.8515   7.2409

          k = 0.0000-0.2579-0.2971 ( 36454 PWs)   bands (ev):

   -44.1597 -44.1597 -22.3059 -22.3059 -22.1994 -22.1994 -22.0802 -22.0802
    -7.4584  -7.4584  -6.8151  -6.8151  -6.1195  -6.1195  -4.9225  -4.9225
    -4.2859  -4.2859   0.7429   0.7429   0.9371   0.9371   1.5168   1.5168
     2.5063   2.5063   2.7326   2.7326   3.0770   3.0770   3.1271   3.1271
     3.7701   3.7701   3.8600   3.8600   4.0911   4.0911   4.4355   4.4355
     4.7407   4.7407   5.9054   5.9054   6.3215   6.3215   6.3864   6.3864
     7.1889   7.1889

          k = 1.5243 0.0000 0.0000 ( 36439 PWs)   bands (ev):

   -44.1584 -44.1584 -22.2992 -22.2992 -22.2339 -22.2339 -22.0758 -22.0758
    -7.1596  -6.8759  -6.6338  -6.4669  -6.4161  -5.1936  -5.1602  -4.7874
    -4.7083  -4.4146   0.5017   0.7310   0.7631   1.3544   1.5211   1.5511
     1.6156   1.8454   1.8784   2.2671   2.2753   2.2962   2.5322   3.1349
     3.2702   3.3060   3.3464   3.5170   3.6519   3.6892   3.9189   4.0727
     4.6885   5.3025   5.3153   5.6511   6.0234   6.6074   6.8050   6.8056
     7.1438   7.5387

          k = 1.5243 0.0000 0.1485 ( 36476 PWs)   bands (ev):

   -44.1584 -44.1584 -22.2992 -22.2992 -22.2339 -22.2339 -22.0758 -22.0758
    -7.1268  -6.9245  -6.6390  -6.6030  -6.1691  -5.4933  -4.9705  -4.7507
    -4.6957  -4.4407   0.5197   0.7696   0.8957   1.0851   1.4307   1.5139
     1.5368   1.6902   2.0721   2.0887   2.3276   2.6992   2.9256   3.1088
     3.2614   3.3301   3.3435   3.5577   3.5677   3.6987   3.7646   4.1090
     4.2847   4.6013   5.8753   6.0382   6.2093   6.5311   6.8056   6.8489
     7.0091   7.4901

          k = 1.5243 0.0000-0.2971 ( 36508 PWs)   bands (ev):

   -44.1584 -44.1584 -22.2992 -22.2992 -22.2339 -22.2339 -22.0758 -22.0758
    -7.0359  -7.0359  -6.6430  -6.6430  -5.8408  -5.8408  -4.8487  -4.8487
    -4.5368  -4.5368   0.6475   0.6475   1.0957   1.0957   1.2416   1.2416
     1.5732   1.5732   2.0572   2.0572   2.8593   2.8593   3.1581   3.1581
     3.2891   3.2891   3.3489   3.3489   3.6438   3.6438   3.8397   3.8397
     4.1422   4.1422   6.1155   6.1155   6.6192   6.6192   6.7713   6.7713
     7.0964   7.0965

          k =-0.2541-0.4514 0.0000 ( 36444 PWs)   bands (ev):

   -44.1593 -44.1593 -22.3040 -22.3039 -22.2095 -22.2095 -22.0789 -22.0789
    -7.4757  -7.0603  -6.7688  -6.7507  -6.6376  -5.2337  -5.1697  -4.8977
    -4.8050  -4.0062   0.6281   0.9679   1.1075   1.2741   1.4409   1.5226
     2.0414   2.2019   2.2587   2.2959   2.4367   3.1326   3.2072   3.2690
     3.5176   3.7288   3.7358   3.7669   3.9826   3.9900   4.0875   4.1763
     4.4470   4.5664   5.8354   6.0394   6.3964   6.4691   6.7356   6.8918
     6.9076   7.0001

          k =-0.2541-0.4514 0.1485 ( 36461 PWs)   bands (ev):

   -44.1593 -44.1593 -22.3039 -22.3039 -22.2095 -22.2095 -22.0789 -22.0789
    -7.4378  -7.1665  -6.7973  -6.7759  -6.4123  -5.6238  -4.9789  -4.8327
    -4.6875  -4.0942   0.6319   0.9677   1.0949   1.2538   1.3017   1.6950
     1.9016   2.2564   2.3130   2.4755   2.6423   2.9055   3.1925   3.2062
     3.3569   3.5005   3.8074   3.8274   3.9234   4.0067   4.0584   4.0988
     4.6963   4.9991   5.7612   5.8400   6.1918   6.2432   6.7447   6.7565
     7.1372   7.2533

          k =-0.2541-0.4514-0.2971 ( 36490 PWs)   bands (ev):

   -44.1593 -44.1593 -22.3039 -22.3039 -22.2095 -22.2095 -22.0789 -22.0789
    -7.3279  -7.3279  -6.7930  -6.7930  -6.0430  -6.0430  -4.8998  -4.8998
    -4.3405  -4.3405   0.7391   0.7391   1.2631   1.2631   1.3676   1.3676
     2.2318   2.2318   2.4487   2.4487   2.7842   2.7842   3.1756   3.1756
     3.2328   3.2328   3.7850   3.7850   4.0031   4.0031   4.0712   4.0712
     5.2035   5.2035   5.6358   5.6358   5.9853   5.9853   6.7480   6.7480
     7.3506   7.3507

          k = 0.0000-0.3869 0.0000 ( 36477 PWs)   bands (ev):

   -44.1597 -44.1597 -22.3059 -22.3059 -22.1994 -22.1994 -22.0802 -22.0801
    -7.5937  -7.1465  -6.8508  -6.8123  -6.6949  -5.2642  -5.1862  -4.9403
    -4.8452  -3.8712   0.5734   0.8298   0.9782   1.1487   1.6186   1.6803
     2.4337   2.5074   2.6216   2.9196   3.0220   3.0295   3.0917   3.1866
     3.3298   3.4870   3.7935   3.8982   3.9828   4.0078   4.0649   4.6299
     5.2067   5.3950   5.5980   5.7111   5.9409   6.2082   6.5445   6.6727
     6.9345   7.3025

          k = 0.0000-0.3869 0.1485 ( 36452 PWs)   bands (ev):

   -44.1597 -44.1597 -22.3059 -22.3059 -22.1994 -22.1994 -22.0802 -22.0802
    -7.5547  -7.2702  -6.8536  -6.8184  -6.4945  -5.6804  -4.9999  -4.8703
    -4.6884  -3.9825   0.5782   0.9662   1.0593   1.1196   1.1978   2.1237
     2.2018   2.4576   2.5903   2.8591   2.8893   3.0366   3.1254   3.2677
     3.6210   3.6258   3.6885   3.9096   4.0047   4.0131   4.0625   4.6515
     4.9655   5.0205   5.7506   5.9240   6.0895   6.1121   6.4915   6.7753
     6.9080   7.2012

          k = 0.0000-0.3869-0.2971 ( 36454 PWs)   bands (ev):

   -44.1597 -44.1597 -22.3059 -22.3059 -22.1994 -22.1994 -22.0802 -22.0802
    -7.4412  -7.4412  -6.8374  -6.8374  -6.1188  -6.1188  -4.9309  -4.9309
    -4.2822  -4.2822   0.7427   0.7427   1.0912   1.0912   1.5444   1.5444
     2.5201   2.5201   2.6776   2.6776   2.9846   2.9846   3.0638   3.0638
     3.7766   3.7766   3.8483   3.8483   3.9878   3.9878   4.4231   4.4231
     4.7435   4.7435   5.8693   5.8693   6.3425   6.3425   6.3899   6.3899
     7.1631   7.1631

          k =-2.0325 0.0000 0.0000 ( 36452 PWs)   bands (ev):

   -44.1597 -44.1597 -22.3059 -22.3059 -22.1994 -22.1994 -22.0802 -22.0801
    -7.5865  -7.1388  -6.8495  -6.8184  -6.7098  -5.2633  -5.1905  -4.9409
    -4.8435  -3.8719   0.5765   0.8364   1.0840   1.1583   1.6600   1.6889
     2.4381   2.4868   2.6299   2.7745   2.9350   3.0229   3.1220   3.1844
     3.4197   3.4759   3.7893   3.8231   3.9464   3.9681   4.0647   4.6318
     5.2001   5.3835   5.6052   5.7481   5.9551   6.2177   6.4944   6.6972
     6.9352   7.2038

          k =-2.0325 0.0000 0.1485 ( 36456 PWs)   bands (ev):

   -44.1597 -44.1597 -22.3059 -22.3059 -22.1994 -22.1994 -22.0802 -22.0802
    -7.5475  -7.2623  -6.8617  -6.8271  -6.4976  -5.6795  -5.0071  -4.8700
    -4.6854  -3.9825   0.5777   1.0110   1.0700   1.1618   1.2631   2.1350
     2.2093   2.4623   2.5978   2.7260   2.7912   3.0303   3.1210   3.3319
     3.6052   3.6129   3.7039   3.8789   3.9608   4.0114   4.0253   4.6534
     4.9640   5.0183   5.7684   5.9269   6.0726   6.1188   6.4758   6.7762
     6.9252   7.1862

          k =-2.0325 0.0000-0.2971 ( 36460 PWs)   bands (ev):

   -44.1597 -44.1597 -22.3059 -22.3059 -22.1994 -22.1994 -22.0802 -22.0802
    -7.4337  -7.4337  -6.8470  -6.8470  -6.1185  -6.1185  -4.9343  -4.9343
    -4.2806  -4.2806   0.7394   0.7394   1.1726   1.1726   1.5578   1.5578
     2.5260   2.5260   2.5997   2.5997   2.9638   2.9638   3.0581   3.0581
     3.7739   3.7739   3.8434   3.8434   3.9565   3.9565   4.4185   4.4185
     4.7446   4.7446   5.8533   5.8533   6.3485   6.3485   6.3914   6.3914
     7.1501   7.1501

     the Fermi energy is     5.2615 ev

!    total energy              =   -4240.93116162 Ry

     total all-electron energy =   -150287.624856 Ry
     estimated scf accuracy    <          5.0E-11 Ry
     smearing contrib. (-TS)   =       0.00005258 Ry
     internal energy E=F+TS    =   -4240.93121420 Ry

     The total energy is F=E-TS. E is the sum of the following terms:
     one-electron contribution =    -164.51597995 Ry
     hartree contribution      =     115.72141636 Ry
     xc contribution           =    -201.40475514 Ry
     ewald contribution        =    -223.22364177 Ry
     one-center paw contrib.   =   -3767.50825371 Ry

     convergence has been achieved in  18 iterations

     Forces acting on atoms (cartesian axes, Ry/au):

     atom    1 type  1   force =     0.00000000   -0.02515314    0.00000000
     atom    2 type  1   force =     0.00000000    0.02515314    0.00000000
     atom    3 type  2   force =     0.00000000    0.00245138    0.00000000
     atom    4 type  2   force =     0.00000000   -0.00245138    0.00000000
     atom    5 type  2   force =     0.00000000    0.00555046   -0.00022196
     atom    6 type  2   force =     0.00000000   -0.00555046    0.00022196
     atom    7 type  2   force =     0.00000000    0.00555046    0.00022196
     atom    8 type  2   force =     0.00000000   -0.00555046   -0.00022196
     atom    9 type  2   force =     0.00000000    0.02050205    0.01511622
     atom   10 type  2   force =     0.00000000   -0.02050205   -0.01511622
     atom   11 type  2   force =     0.00000000    0.02050205   -0.01511622
     atom   12 type  2   force =     0.00000000   -0.02050205    0.01511622

     Total force =     0.063215     Total SCF correction =     0.000010


     Computing stress (Cartesian axis) and pressure

          total   stress  (Ry/bohr**3)                   (kbar)     P=       -5.01
  -0.00001331   0.00000000   0.00000000           -1.96        0.00        0.00
   0.00000000  -0.00003435   0.00000000            0.00       -5.05        0.00
   0.00000000   0.00000000  -0.00005447            0.00        0.00       -8.01

 
     init_run     :     36.29s CPU     36.93s WALL (       1 calls)
     electrons    :   1741.82s CPU   1760.19s WALL (       1 calls)
     forces       :      5.49s CPU      5.68s WALL (       1 calls)
     stress       :     29.83s CPU     30.37s WALL (       1 calls)

     Called by init_run:
     wfcinit      :     31.39s CPU     31.65s WALL (       1 calls)
     potinit      :      1.58s CPU      1.63s WALL (       1 calls)
     hinit0       :      1.55s CPU      1.57s WALL (       1 calls)

     Called by electrons:
     c_bands      :   1414.91s CPU   1422.52s WALL (      19 calls)
     sum_band     :    292.44s CPU    298.74s WALL (      19 calls)
     v_of_rho     :      8.65s CPU      9.30s WALL (      19 calls)
     newd         :     18.59s CPU     22.65s WALL (      19 calls)
     PAW_pot      :      6.65s CPU      6.65s WALL (      19 calls)
     mix_rho      :      1.71s CPU      1.74s WALL (      19 calls)

     Called by c_bands:
     init_us_2    :     14.15s CPU     14.22s WALL (    2583 calls)
     cegterg      :   1334.13s CPU   1341.00s WALL (    1197 calls)

     Called by *egterg:
     cdiaghg      :     28.16s CPU     28.31s WALL (    8154 calls)
     h_psi        :   1152.76s CPU   1159.31s WALL (    8280 calls)
     s_psi        :     51.89s CPU     51.97s WALL (    8280 calls)
     g_psi        :      2.30s CPU      2.32s WALL (    7020 calls)

     Called by h_psi:
     h_psi:calbec :     44.22s CPU     44.31s WALL (    8280 calls)
     vloc_psi     :   1052.95s CPU   1059.23s WALL (    8280 calls)
     add_vuspsi   :     51.43s CPU     51.53s WALL (    8280 calls)

     General routines
     calbec       :     57.76s CPU     57.91s WALL (    9792 calls)
     fft          :      7.55s CPU      7.78s WALL (     271 calls)
     ffts         :      0.19s CPU      0.19s WALL (      38 calls)
     fftw         :   1055.67s CPU   1061.74s WALL (  436798 calls)
     interpolate  :      0.65s CPU      0.66s WALL (      19 calls)
 
     Parallel routines
     fft_scatt_xy :    262.32s CPU    263.91s WALL (  437107 calls)
     fft_scatt_yz :    260.53s CPU    262.30s WALL (  437107 calls)
 
     PWSCF        :  30m13.66s CPU  30m34.01s WALL

 
   This run was terminated on:  15:24:24  19Nov2021            

=------------------------------------------------------------------------------=
   JOB DONE.
=------------------------------------------------------------------------------=
