
     Program PWSCF v.6.7MaX starts on 19Nov2021 at 14:46:27 

     This program is part of the open-source Quantum ESPRESSO suite
     for quantum simulation of materials; please cite
         "P. Giannozzi et al., J. Phys.:Condens. Matter 21 395502 (2009);
         "P. Giannozzi et al., J. Phys.:Condens. Matter 29 465901 (2017);
          URL http://www.quantum-espresso.org", 
     in publications or presentations arising from this work. More details at
     http://www.quantum-espresso.org/quote

     Parallel version (MPI), running on    10 processors

     MPI processes distributed on     1 nodes
     R & G space division:  proc/nbgrp/npool/nimage =      10
     Waiting for input...
     Reading input from standard input

     Current dimensions of program PWSCF are:
     Max number of different atomic species (ntypx) = 10
     Max number of k-points (npk) =  40000
     Max angular momentum in pseudopotentials (lmaxx) =  3
     file Zr.pbe-spn-kjpaw_psl.1.0.0.UPF: wavefunction(s)  4S 4P renormalized
     file Te.pbe-n-kjpaw_psl.1.0.0.UPF: wavefunction(s)  5S 5P renormalized

     Subspace diagonalization in iterative solution of the eigenvalue problem:
     a serial algorithm will be used

     Message from routine setup:
     using ibrav=0 with symmetry is DISCOURAGED, use correct ibrav instead
 
     Parallelization info
     --------------------
     sticks:   dense  smooth     PW     G-vecs:    dense   smooth      PW
     Min         734     293     87               115340    29174    4753
     Max         735     295     88               115345    29176    4760
     Sum        7345    2937    873              1153415   291749   47557
 


     bravais-lattice index     =            0
     lattice parameter (alat)  =      15.5510  a.u.
     unit-cell volume          =    3018.5011 (a.u.)^3
     number of atoms/cell      =           12
     number of atomic types    =            2
     number of electrons       =        84.00
     number of Kohn-Sham states=           50
     kinetic-energy cutoff     =      80.0000  Ry
     charge density cutoff     =     800.0000  Ry
     scf convergence threshold =      1.0E-10
     mixing beta               =       0.7000
     number of iterations used =            8  plain     mixing
     Exchange-correlation= SLA  PW   PBX  PBC
                           (   1   4   3   4   0   0   0)

     celldm(1)=  15.551040  celldm(2)=   0.000000  celldm(3)=   0.000000
     celldm(4)=   0.000000  celldm(5)=   0.000000  celldm(6)=   0.000000

     crystal axes: (cart. coord. in units of alat)
               a(1) = (   0.246007  -0.969268   0.000000 )  
               a(2) = (   0.246007   0.969268   0.000000 )  
               a(3) = (   0.000000   0.000000   1.683031 )  

     reciprocal axes: (cart. coord. in units 2 pi/alat)
               b(1) = (  2.032465 -0.515853  0.000000 )  
               b(2) = (  2.032465  0.515853  0.000000 )  
               b(3) = (  0.000000  0.000000  0.594166 )  


     PseudoPot. # 1 for Zr read from file:
     pseudo/Zr.pbe-spn-kjpaw_psl.1.0.0.UPF
     MD5 check sum: 02112c41713a0468aff2bb39ef194e36
     Pseudo is Projector augmented-wave + core cor, Zval = 12.0
     Generated using &quot;atomic&quot; code by A. Dal Corso  v.6.2.2
     Shape of augmentation charge: PSQ
     Using radial grid of 1225 points,  6 beta functions with: 
                l(1) =   0
                l(2) =   0
                l(3) =   1
                l(4) =   1
                l(5) =   2
                l(6) =   2
     Q(r) pseudized with 0 coefficients 


     PseudoPot. # 2 for Te read from file:
     pseudo/Te.pbe-n-kjpaw_psl.1.0.0.UPF
     MD5 check sum: 66247bff2bd9dbf220fbb0bf5ab56e9d
     Pseudo is Projector augmented-wave + core cor, Zval =  6.0
     Generated using &quot;atomic&quot; code by A. Dal Corso  v.6.3
     Shape of augmentation charge: PSQ
     Using radial grid of 1245 points,  6 beta functions with: 
                l(1) =   0
                l(2) =   0
                l(3) =   1
                l(4) =   1
                l(5) =   2
                l(6) =   2
     Q(r) pseudized with 0 coefficients 


     atomic species   valence    mass     pseudopotential
        Zr            12.00    91.22000     Zr( 1.00)
        Te             6.00   127.60000     Te( 1.00)

      8 Sym. Ops., with inversion, found ( 4 have fractional translation)



   Cartesian axes

     site n.     atom                  positions (alat units)
         1           Zr  tau(   1) = (   0.0000000   0.6120656   0.4207578  )
         2           Zr  tau(   2) = (   0.2460067   0.3572025   1.2622733  )
         3           Te  tau(   3) = (   0.2460067   0.3343782   0.4207578  )
         4           Te  tau(   4) = (   0.0000000   0.6348899   1.2622733  )
         5           Te  tau(   5) = (   0.2460067   0.8068860   0.2500567  )
         6           Te  tau(   6) = (   0.0000000   0.1623821   1.4329744  )
         7           Te  tau(   7) = (   0.2460067   0.8068860   0.5914588  )
         8           Te  tau(   8) = (   0.0000000   0.1623821   1.0915722  )
         9           Te  tau(   9) = (   0.0000000   0.4035783   0.7200884  )
        10           Te  tau(  10) = (   0.2460067   0.5656898   0.9629426  )
        11           Te  tau(  11) = (   0.0000000   0.4035783   0.1214271  )
        12           Te  tau(  12) = (   0.2460067   0.5656898   1.5616040  )

     number of k points=    63  Methfessel-Paxton smearing, width (Ry)=  0.0030
                       cart. coord. in units 2pi/alat
        k(    1) = (   0.0000000   0.0000000   0.0000000), wk =   0.0078125
        k(    2) = (   0.0000000   0.0000000   0.1485415), wk =   0.0156250
        k(    3) = (   0.0000000   0.0000000  -0.2970830), wk =   0.0078125
        k(    4) = (   0.2540581   0.0644816   0.0000000), wk =   0.0312500
        k(    5) = (   0.2540581   0.0644816   0.1485415), wk =   0.0625000
        k(    6) = (   0.2540581   0.0644816  -0.2970830), wk =   0.0312500
        k(    7) = (   0.5081162   0.1289633   0.0000000), wk =   0.0312500
        k(    8) = (   0.5081162   0.1289633   0.1485415), wk =   0.0625000
        k(    9) = (   0.5081162   0.1289633  -0.2970830), wk =   0.0312500
        k(   10) = (   0.7621743   0.1934449   0.0000000), wk =   0.0312500
        k(   11) = (   0.7621743   0.1934449   0.1485415), wk =   0.0625000
        k(   12) = (   0.7621743   0.1934449  -0.2970830), wk =   0.0312500
        k(   13) = (  -1.0162324  -0.2579266   0.0000000), wk =   0.0156250
        k(   14) = (  -1.0162324  -0.2579266   0.1485415), wk =   0.0312500
        k(   15) = (  -1.0162324  -0.2579266  -0.2970830), wk =   0.0156250
        k(   16) = (   0.5081162   0.0000000   0.0000000), wk =   0.0156250
        k(   17) = (   0.5081162   0.0000000   0.1485415), wk =   0.0312500
        k(   18) = (   0.5081162   0.0000000  -0.2970830), wk =   0.0156250
        k(   19) = (   0.7621743   0.0644816   0.0000000), wk =   0.0312500
        k(   20) = (   0.7621743   0.0644816   0.1485415), wk =   0.0625000
        k(   21) = (   0.7621743   0.0644816  -0.2970830), wk =   0.0312500
        k(   22) = (   1.0162324   0.1289633   0.0000000), wk =   0.0312500
        k(   23) = (   1.0162324   0.1289633   0.1485415), wk =   0.0625000
        k(   24) = (   1.0162324   0.1289633  -0.2970830), wk =   0.0312500
        k(   25) = (  -0.7621743  -0.3224082   0.0000000), wk =   0.0312500
        k(   26) = (  -0.7621743  -0.3224082   0.1485415), wk =   0.0625000
        k(   27) = (  -0.7621743  -0.3224082  -0.2970830), wk =   0.0312500
        k(   28) = (  -0.5081162  -0.2579266   0.0000000), wk =   0.0312500
        k(   29) = (  -0.5081162  -0.2579266   0.1485415), wk =   0.0625000
        k(   30) = (  -0.5081162  -0.2579266  -0.2970830), wk =   0.0312500
        k(   31) = (  -0.2540581  -0.1934449   0.0000000), wk =   0.0312500
        k(   32) = (  -0.2540581  -0.1934449   0.1485415), wk =   0.0625000
        k(   33) = (  -0.2540581  -0.1934449  -0.2970830), wk =   0.0312500
        k(   34) = (   0.0000000  -0.1289633   0.0000000), wk =   0.0156250
        k(   35) = (   0.0000000  -0.1289633   0.1485415), wk =   0.0312500
        k(   36) = (   0.0000000  -0.1289633  -0.2970830), wk =   0.0156250
        k(   37) = (   1.0162324   0.0000000   0.0000000), wk =   0.0156250
        k(   38) = (   1.0162324   0.0000000   0.1485415), wk =   0.0312500
        k(   39) = (   1.0162324   0.0000000  -0.2970830), wk =   0.0156250
        k(   40) = (   1.2702905   0.0644816   0.0000000), wk =   0.0312500
        k(   41) = (   1.2702905   0.0644816   0.1485415), wk =   0.0625000
        k(   42) = (   1.2702905   0.0644816  -0.2970830), wk =   0.0312500
        k(   43) = (  -0.5081162  -0.3868899   0.0000000), wk =   0.0312500
        k(   44) = (  -0.5081162  -0.3868899   0.1485415), wk =   0.0625000
        k(   45) = (  -0.5081162  -0.3868899  -0.2970830), wk =   0.0312500
        k(   46) = (  -0.2540581  -0.3224082   0.0000000), wk =   0.0312500
        k(   47) = (  -0.2540581  -0.3224082   0.1485415), wk =   0.0625000
        k(   48) = (  -0.2540581  -0.3224082  -0.2970830), wk =   0.0312500
        k(   49) = (   0.0000000  -0.2579266   0.0000000), wk =   0.0156250
        k(   50) = (   0.0000000  -0.2579266   0.1485415), wk =   0.0312500
        k(   51) = (   0.0000000  -0.2579266  -0.2970830), wk =   0.0156250
        k(   52) = (   1.5243485   0.0000000   0.0000000), wk =   0.0156250
        k(   53) = (   1.5243485   0.0000000   0.1485415), wk =   0.0312500
        k(   54) = (   1.5243485   0.0000000  -0.2970830), wk =   0.0156250
        k(   55) = (  -0.2540581  -0.4513715   0.0000000), wk =   0.0312500
        k(   56) = (  -0.2540581  -0.4513715   0.1485415), wk =   0.0625000
        k(   57) = (  -0.2540581  -0.4513715  -0.2970830), wk =   0.0312500
        k(   58) = (   0.0000000  -0.3868899   0.0000000), wk =   0.0156250
        k(   59) = (   0.0000000  -0.3868899   0.1485415), wk =   0.0312500
        k(   60) = (   0.0000000  -0.3868899  -0.2970830), wk =   0.0156250
        k(   61) = (  -2.0324647   0.0000000   0.0000000), wk =   0.0078125
        k(   62) = (  -2.0324647   0.0000000   0.1485415), wk =   0.0156250
        k(   63) = (  -2.0324647   0.0000000  -0.2970830), wk =   0.0078125

     Dense  grid:  1153415 G-vectors     FFT dimensions: ( 144, 144, 240)

     Smooth grid:   291749 G-vectors     FFT dimensions: (  90,  90, 150)

     Estimated max dynamical RAM per process >     657.19 MB

     Estimated total dynamical RAM >       6.42 GB

     Initial potential from superposition of free atoms

     starting charge   83.99353, renormalised to   84.00000
     Starting wfcs are   66 randomized atomic wfcs
     Checking if some PAW data can be deallocated... 

     total cpu time spent up to now is       39.9 secs

     Self-consistent Calculation

     iteration #  1     ecut=    80.00 Ry     beta= 0.70
     Davidson diagonalization with overlap
     ethr =  1.00E-02,  avg # of iterations =  2.0

     Threshold (ethr) on eigenvalues was too large:
     Diagonalizing with lowered threshold

     Davidson diagonalization with overlap
     ethr =  3.73E-04,  avg # of iterations =  4.1

     total cpu time spent up to now is      199.1 secs

     total energy              =   -4240.71382308 Ry
     estimated scf accuracy    <       0.42521094 Ry

     iteration #  2     ecut=    80.00 Ry     beta= 0.70
     Davidson diagonalization with overlap
     ethr =  5.06E-04,  avg # of iterations =  7.4

     total cpu time spent up to now is      309.0 secs

     total energy              =   -4240.62080627 Ry
     estimated scf accuracy    <       2.17396190 Ry

     iteration #  3     ecut=    80.00 Ry     beta= 0.70
     Davidson diagonalization with overlap
     ethr =  5.06E-04,  avg # of iterations =  5.1

     total cpu time spent up to now is      403.7 secs

     total energy              =   -4240.91069504 Ry
     estimated scf accuracy    <       0.02241979 Ry

     iteration #  4     ecut=    80.00 Ry     beta= 0.70
     Davidson diagonalization with overlap
     c_bands:  2 eigenvalues not converged
     c_bands:  1 eigenvalues not converged
     c_bands:  1 eigenvalues not converged
     c_bands:  1 eigenvalues not converged
     c_bands:  1 eigenvalues not converged
     c_bands:  1 eigenvalues not converged
     c_bands:  2 eigenvalues not converged
     ethr =  2.67E-05,  avg # of iterations = 15.4

     total cpu time spent up to now is      561.7 secs

     total energy              =   -4240.93040992 Ry
     estimated scf accuracy    <       0.10654269 Ry

     iteration #  5     ecut=    80.00 Ry     beta= 0.70
     Davidson diagonalization with overlap
     ethr =  2.67E-05,  avg # of iterations =  4.9

     total cpu time spent up to now is      643.5 secs

     total energy              =   -4240.93224531 Ry
     estimated scf accuracy    <       0.02514568 Ry

     iteration #  6     ecut=    80.00 Ry     beta= 0.70
     Davidson diagonalization with overlap
     ethr =  2.67E-05,  avg # of iterations =  2.8

     total cpu time spent up to now is      716.3 secs

     total energy              =   -4240.93359617 Ry
     estimated scf accuracy    <       0.00325839 Ry

     iteration #  7     ecut=    80.00 Ry     beta= 0.70
     Davidson diagonalization with overlap
     c_bands:  1 eigenvalues not converged
     c_bands:  1 eigenvalues not converged
     c_bands:  2 eigenvalues not converged
     c_bands:  1 eigenvalues not converged
     c_bands:  1 eigenvalues not converged
     c_bands:  1 eigenvalues not converged
     c_bands:  1 eigenvalues not converged
     c_bands:  1 eigenvalues not converged
     c_bands:  1 eigenvalues not converged
     c_bands:  1 eigenvalues not converged
     ethr =  3.88E-06,  avg # of iterations = 13.8

     total cpu time spent up to now is      841.8 secs

     total energy              =   -4240.93543970 Ry
     estimated scf accuracy    <       0.00288500 Ry

     iteration #  8     ecut=    80.00 Ry     beta= 0.70
     Davidson diagonalization with overlap
     c_bands:  1 eigenvalues not converged
     c_bands:  1 eigenvalues not converged
     c_bands:  1 eigenvalues not converged
     c_bands:  1 eigenvalues not converged
     ethr =  3.43E-06,  avg # of iterations =  3.5

     total cpu time spent up to now is      911.9 secs

     total energy              =   -4240.93543007 Ry
     estimated scf accuracy    <       0.00067178 Ry

     iteration #  9     ecut=    80.00 Ry     beta= 0.70
     Davidson diagonalization with overlap
     ethr =  8.00E-07,  avg # of iterations =  6.0

     total cpu time spent up to now is      993.9 secs

     total energy              =   -4240.93556117 Ry
     estimated scf accuracy    <       0.00001118 Ry

     iteration # 10     ecut=    80.00 Ry     beta= 0.70
     Davidson diagonalization with overlap
     c_bands:  1 eigenvalues not converged
     ethr =  1.33E-08,  avg # of iterations = 10.2

     total cpu time spent up to now is     1124.0 secs

     total energy              =   -4240.93558449 Ry
     estimated scf accuracy    <       0.00001711 Ry

     iteration # 11     ecut=    80.00 Ry     beta= 0.70
     Davidson diagonalization with overlap
     ethr =  1.33E-08,  avg # of iterations =  2.8

     total cpu time spent up to now is     1199.2 secs

     total energy              =   -4240.93558675 Ry
     estimated scf accuracy    <       0.00000023 Ry

     iteration # 12     ecut=    80.00 Ry     beta= 0.70
     Davidson diagonalization with overlap
     c_bands:  1 eigenvalues not converged
     c_bands:  1 eigenvalues not converged
     c_bands:  1 eigenvalues not converged
     ethr =  2.75E-10,  avg # of iterations = 11.1

     total cpu time spent up to now is     1337.7 secs

     total energy              =   -4240.93558704 Ry
     estimated scf accuracy    <       0.00000111 Ry

     iteration # 13     ecut=    80.00 Ry     beta= 0.70
     Davidson diagonalization with overlap
     ethr =  2.75E-10,  avg # of iterations =  5.2

     total cpu time spent up to now is     1425.8 secs

     total energy              =   -4240.93558713 Ry
     estimated scf accuracy    <       0.00000006 Ry

     iteration # 14     ecut=    80.00 Ry     beta= 0.70
     Davidson diagonalization with overlap
     ethr =  6.69E-11,  avg # of iterations =  6.0

     total cpu time spent up to now is     1520.3 secs

     total energy              =   -4240.93558715 Ry
     estimated scf accuracy    <       0.00000001 Ry

     iteration # 15     ecut=    80.00 Ry     beta= 0.70
     Davidson diagonalization with overlap
     ethr =  1.72E-11,  avg # of iterations =  1.6

     total cpu time spent up to now is     1587.2 secs

     total energy              =   -4240.93558715 Ry
     estimated scf accuracy    <          3.0E-09 Ry

     iteration # 16     ecut=    80.00 Ry     beta= 0.70
     Davidson diagonalization with overlap
     ethr =  3.63E-12,  avg # of iterations =  5.8

     total cpu time spent up to now is     1683.6 secs

     total energy              =   -4240.93558715 Ry
     estimated scf accuracy    <          1.3E-09 Ry

     iteration # 17     ecut=    80.00 Ry     beta= 0.70
     Davidson diagonalization with overlap
     ethr =  1.49E-12,  avg # of iterations =  1.2

     total cpu time spent up to now is     1748.1 secs

     total energy              =   -4240.93558715 Ry
     estimated scf accuracy    <          5.1E-10 Ry

     iteration # 18     ecut=    80.00 Ry     beta= 0.70
     Davidson diagonalization with overlap
     ethr =  6.06E-13,  avg # of iterations =  2.7

     total cpu time spent up to now is     1818.1 secs

     total energy              =   -4240.93558715 Ry
     estimated scf accuracy    <          1.3E-10 Ry

     iteration # 19     ecut=    80.00 Ry     beta= 0.70
     Davidson diagonalization with overlap
     ethr =  1.52E-13,  avg # of iterations =  6.8

     total cpu time spent up to now is     1900.0 secs

     End of self-consistent calculation

          k = 0.0000 0.0000 0.0000 ( 36359 PWs)   bands (ev):

   -44.1567 -44.1567 -22.3007 -22.3007 -22.1959 -22.1959 -22.0774 -22.0773
    -7.6432  -7.1769  -6.9276  -6.7700  -6.5896  -5.3027  -5.1346  -4.9133
    -4.8568  -3.8663   0.4587   0.6709   0.7823   1.0500   1.4842   1.6086
     2.4148   2.5106   2.6008   2.9964   3.0509   3.0812   3.1387   3.5016
     3.5463   3.5810   3.8532   4.0381   4.0896   4.2810   4.3167   4.6222
     5.1836   5.5569   5.5573   5.5913   5.8560   6.0558   6.4185   6.7854
     6.9334   7.3029

          k = 0.0000 0.0000 0.1485 ( 36415 PWs)   bands (ev):

   -44.1567 -44.1567 -22.3007 -22.3007 -22.1959 -22.1959 -22.0774 -22.0773
    -7.6042  -7.3157  -6.8468  -6.7768  -6.4589  -5.6925  -4.9356  -4.8690
    -4.7082  -3.9826   0.4969   0.7090   0.9091   1.0575   1.0587   2.0427
     2.1234   2.4380   2.5691   3.0544   3.0766   3.1066   3.3135   3.3632
     3.6714   3.6881   3.8274   4.0281   4.0437   4.3007   4.3284   4.6410
     4.9462   5.0634   5.7024   5.9133   6.0487   6.0760   6.5833   6.7102
     6.7704   7.2837

          k = 0.0000 0.0000-0.2971 ( 36410 PWs)   bands (ev):

   -44.1567 -44.1567 -22.3007 -22.3007 -22.1959 -22.1959 -22.0774 -22.0774
    -7.4902  -7.4902  -6.7977  -6.7977  -6.1207  -6.1207  -4.8990  -4.8990
    -4.2923  -4.2923   0.6740   0.6740   0.8457   0.8457   1.4617   1.4617
     2.4993   2.4993   2.7023   2.7023   3.0698   3.0698   3.3463   3.3463
     3.8188   3.8188   3.8930   3.8930   4.3149   4.3149   4.4246   4.4246
     4.7271   4.7271   5.9612   5.9612   6.2489   6.2489   6.3800   6.3800
     7.1734   7.1735

          k = 0.2541 0.0645 0.0000 ( 36396 PWs)   bands (ev):

   -44.1563 -44.1563 -22.2988 -22.2988 -22.2060 -22.2060 -22.0761 -22.0760
    -7.5297  -7.0911  -6.8268  -6.7244  -6.5317  -5.2706  -5.1195  -4.8728
    -4.8155  -4.0026   0.5462   0.8072   0.9201   1.1678   1.2679   1.5041
     1.9405   2.1417   2.2153   2.5203   2.5955   2.9921   3.5077   3.6402
     3.6623   3.6944   3.7338   3.8113   4.0375   4.1282   4.2052   4.2679
     4.4602   4.7291   5.6707   6.0001   6.3002   6.5400   6.6161   6.8336
     7.0007   7.1428

          k = 0.2541 0.0645 0.1485 ( 36423 PWs)   bands (ev):

   -44.1563 -44.1563 -22.2988 -22.2988 -22.2060 -22.2060 -22.0761 -22.0761
    -7.4917  -7.2149  -6.7788  -6.7302  -6.3862  -5.6372  -4.9134  -4.8298
    -4.7092  -4.0959   0.5721   0.8479   0.9776   1.0007   1.1367   1.6172
     1.8733   2.3035   2.5021   2.5412   2.5804   2.9137   3.2482   3.3014
     3.6423   3.6763   3.8111   3.8804   3.9940   4.0828   4.2185   4.2782
     4.6998   5.0639   5.7946   5.8122   6.2225   6.2770   6.4846   6.6665
     7.2678   7.2817

          k = 0.2541 0.0645-0.2971 ( 36436 PWs)   bands (ev):

   -44.1563 -44.1563 -22.2988 -22.2988 -22.2060 -22.2060 -22.0761 -22.0761
    -7.3812  -7.3812  -6.7468  -6.7468  -6.0484  -6.0484  -4.8653  -4.8653
    -4.3531  -4.3531   0.7064   0.7064   0.9519   0.9519   1.3066   1.3066
     2.2808   2.2808   2.6158   2.6158   2.7133   2.7133   3.0834   3.0834
     3.5832   3.5832   3.8460   3.8460   4.0171   4.0171   4.2733   4.2733
     5.2050   5.2050   5.7371   5.7371   6.0686   6.0686   6.4757   6.4757
     7.4351   7.4352

          k = 0.5081 0.1290 0.0000 ( 36499 PWs)   bands (ev):

   -44.1554 -44.1554 -22.2940 -22.2940 -22.2302 -22.2302 -22.0731 -22.0730
    -7.2130  -6.8890  -6.5949  -6.5377  -6.3401  -5.2197  -5.1259  -4.7661
    -4.7136  -4.4153   0.5005   0.7371   0.7618   1.1740   1.3156   1.4957
     1.6571   1.8259   1.9685   2.1682   2.1719   2.2714   2.4690   3.2130
     3.3374   3.4070   3.4488   3.5582   3.7671   3.8432   3.9764   4.1529
     4.6659   5.3517   5.3555   5.8402   5.9115   6.5327   6.5459   6.8285
     7.3698   7.5791

          k = 0.5081 0.1290 0.1485 ( 36476 PWs)   bands (ev):

   -44.1554 -44.1554 -22.2940 -22.2940 -22.2302 -22.2302 -22.0730 -22.0730
    -7.1796  -6.9584  -6.5987  -6.5836  -6.1646  -5.5060  -4.9303  -4.7422
    -4.7006  -4.4482   0.5090   0.7508   0.9030   1.0896   1.2129   1.4295
     1.4701   1.6816   2.0402   2.0657   2.3279   2.5617   2.8512   3.2462
     3.3273   3.3974   3.4689   3.5699   3.6290   3.7890   3.8482   4.2132
     4.4147   4.6013   6.0031   6.0707   6.2145   6.5423   6.5870   6.7091
     7.2163   7.4770

          k = 0.5081 0.1290-0.2971 ( 36466 PWs)   bands (ev):

   -44.1554 -44.1554 -22.2940 -22.2940 -22.2302 -22.2302 -22.0730 -22.0730
    -7.0852  -7.0852  -6.6012  -6.6012  -5.8515  -5.8515  -4.8137  -4.8137
    -4.5530  -4.5530   0.6204   0.6204   1.1004   1.1004   1.2613   1.2613
     1.3597   1.3597   2.0599   2.0599   2.7862   2.7862   3.1000   3.1000
     3.3222   3.3222   3.5433   3.5433   3.7072   3.7072   3.8442   3.8442
     4.3016   4.3016   6.2326   6.2326   6.5309   6.5309   6.7654   6.7654
     7.0838   7.0838

          k = 0.7622 0.1934 0.0000 ( 36521 PWs)   bands (ev):

   -44.1544 -44.1544 -22.2892 -22.2892 -22.2543 -22.2543 -22.0700 -22.0699
    -6.8304  -6.7150  -6.3311  -6.1078  -5.9851  -5.2808  -5.2767  -5.0521
    -4.6448  -4.6098   0.0031   0.2928   0.6619   1.1612   1.1649   1.2288
     1.4773   1.5886   1.9038   1.9451   2.2648   2.4355   2.5214   2.7347
     2.7579   3.2499   3.2816   3.3417   3.6434   3.6588   3.7792   3.8521
     3.9993   4.5673   5.7487   6.1523   6.2329   6.6592   6.7102   6.8025
     7.1906   7.5489

          k = 0.7622 0.1934 0.1485 ( 36503 PWs)   bands (ev):

   -44.1544 -44.1544 -22.2892 -22.2892 -22.2543 -22.2543 -22.0700 -22.0699
    -6.8130  -6.7305  -6.3243  -6.2106  -5.8308  -5.4168  -5.1925  -5.0730
    -4.6338  -4.6102   0.0797   0.3971   0.5458   0.9620   1.1699   1.2061
     1.4930   1.6590   1.7189   2.0887   2.1301   2.6461   2.6696   2.7945
     2.8597   3.1602   3.2722   3.3671   3.4640   3.6456   3.6863   3.8836
     4.0096   4.7676   5.3546   6.2272   6.5317   6.5705   6.7203   6.8916
     6.9651   7.4465

          k = 0.7622 0.1934-0.2971 ( 36522 PWs)   bands (ev):

   -44.1544 -44.1544 -22.2892 -22.2892 -22.2543 -22.2543 -22.0700 -22.0700
    -6.7710  -6.7710  -6.2923  -6.2923  -5.6130  -5.6130  -5.1255  -5.1255
    -4.6170  -4.6170   0.2820   0.2820   0.7101   0.7101   1.0676   1.0676
     1.5755   1.5755   1.9710   1.9710   2.3742   2.3742   2.7956   2.7956
     2.9900   2.9900   3.4107   3.4107   3.5648   3.5648   3.7817   3.7817
     4.2070   4.2070   5.9614   5.9614   6.3580   6.3580   6.8089   6.8089
     7.2877   7.2877

          k =-1.0162-0.2579 0.0000 ( 36506 PWs)   bands (ev):

   -44.1540 -44.1540 -22.2870 -22.2870 -22.2645 -22.2645 -22.0687 -22.0687
    -6.6813  -6.6612  -5.7690  -5.7587  -5.6436  -5.6302  -5.5640  -5.5637
    -4.5868  -4.5693   0.0915   0.1185   0.4420   0.4603   1.0133   1.0211
     1.4699   1.6764   2.2207   2.3363   2.3364   2.3395   2.7960   2.8319
     2.8363   2.9505   3.2542   3.2792   3.2869   3.5053   3.5807   3.6453
     3.8544   3.9120   6.3439   6.3752   6.4382   6.5236   6.9167   6.9803
     6.9896   6.9967

          k =-1.0162-0.2579 0.1485 ( 36506 PWs)   bands (ev):

   -44.1540 -44.1540 -22.2870 -22.2870 -22.2645 -22.2645 -22.0687 -22.0687
    -6.6778  -6.6635  -5.7694  -5.7603  -5.6734  -5.6691  -5.5258  -5.5221
    -4.5905  -4.5781   0.0055   0.0146   0.6561   0.6602   1.0358   1.0633
     1.4635   1.5731   1.9193   1.9822   2.3613   2.3712   2.7567   2.7658
     2.9542   2.9604   3.1880   3.2292   3.5353   3.5519   3.7088   3.7324
     4.1194   4.1236   5.8399   5.8470   6.3717   6.4433   6.8684   6.9082
     7.2124   7.2337

          k =-1.0162-0.2579-0.2971 ( 36528 PWs)   bands (ev):

   -44.1541 -44.1541 -22.2870 -22.2870 -22.2645 -22.2645 -22.0687 -22.0687
    -6.6701  -6.6701  -5.7662  -5.7662  -5.6921  -5.6921  -5.4971  -5.4971
    -4.5906  -4.5906  -0.0487  -0.0487   0.8959   0.8959   1.0703   1.0703
     1.5042   1.5042   1.6048   1.6048   2.3637   2.3637   2.7908   2.7908
     2.9265   2.9265   3.2160   3.2160   3.5822   3.5822   3.7691   3.7691
     4.6329   4.6329   5.2362   5.2362   6.3395   6.3395   6.9054   6.9054
     7.2775   7.2775

          k = 0.5081 0.0000 0.0000 ( 36503 PWs)   bands (ev):

   -44.1554 -44.1554 -22.2940 -22.2940 -22.2302 -22.2302 -22.0731 -22.0730
    -7.2193  -6.8916  -6.5873  -6.5390  -6.3352  -5.2207  -5.1222  -4.7623
    -4.7185  -4.4149   0.4990   0.7343   0.7687   1.1408   1.3108   1.4752
     1.6626   1.8311   1.9797   2.1347   2.1583   2.2601   2.4777   3.1944
     3.3440   3.3975   3.5035   3.5843   3.7746   3.8292   4.0139   4.1905
     4.6682   5.3541   5.3614   5.8743   5.8912   6.4933   6.4942   6.8637
     7.3988   7.5691

          k = 0.5081 0.0000 0.1485 ( 36453 PWs)   bands (ev):

   -44.1554 -44.1554 -22.2940 -22.2940 -22.2302 -22.2302 -22.0730 -22.0730
    -7.1858  -6.9631  -6.5902  -6.5796  -6.1639  -5.5069  -4.9239  -4.7439
    -4.7016  -4.4490   0.5069   0.7456   0.9091   1.0915   1.1835   1.4254
     1.4514   1.6785   2.0352   2.0679   2.3274   2.5352   2.8433   3.2323
     3.3218   3.4271   3.4885   3.5926   3.6231   3.8342   3.8467   4.2480
     4.4302   4.6033   6.0049   6.0883   6.2177   6.4911   6.5520   6.7395
     7.2423   7.4808

          k = 0.5081 0.0000-0.2971 ( 36452 PWs)   bands (ev):

   -44.1554 -44.1554 -22.2940 -22.2940 -22.2302 -22.2302 -22.0730 -22.0730
    -7.0911  -7.0911  -6.5937  -6.5937  -5.8525  -5.8525  -4.8095  -4.8095
    -4.5557  -4.5557   0.6158   0.6158   1.1010   1.1010   1.2944   1.2944
     1.3028   1.3028   2.0594   2.0594   2.7770   2.7770   3.0761   3.0761
     3.3156   3.3156   3.6019   3.6019   3.7127   3.7127   3.8477   3.8477
     4.3267   4.3267   6.2479   6.2479   6.4968   6.4968   6.7795   6.7795
     7.0858   7.0858

          k = 0.7622 0.0645 0.0000 ( 36505 PWs)   bands (ev):

   -44.1544 -44.1544 -22.2892 -22.2892 -22.2543 -22.2543 -22.0700 -22.0699
    -6.8399  -6.7134  -6.3216  -6.1105  -5.9841  -5.2815  -5.2716  -5.0518
    -4.6388  -4.6171  -0.0032   0.3046   0.6876   1.1536   1.1964   1.2427
     1.4334   1.5438   1.8812   1.9566   2.2155   2.4145   2.5056   2.7093
     2.7372   3.3056   3.3181   3.3454   3.6001   3.6634   3.8336   3.8770
     4.0178   4.6111   5.7473   6.1681   6.1948   6.6256   6.7586   6.7675
     7.2150   7.5514

          k = 0.7622 0.0645 0.1485 ( 36509 PWs)   bands (ev):

   -44.1544 -44.1544 -22.2892 -22.2892 -22.2543 -22.2543 -22.0700 -22.0699
    -6.8215  -6.7312  -6.3151  -6.2083  -5.8326  -5.4173  -5.1887  -5.0721
    -4.6297  -4.6154   0.0767   0.4045   0.5553   0.9859   1.1726   1.2144
     1.4541   1.6578   1.7411   2.0198   2.0546   2.6551   2.6627   2.7623
     2.8498   3.1602   3.3407   3.3886   3.4243   3.6643   3.7161   3.9009
     4.0578   4.7669   5.3818   6.2120   6.5344   6.5562   6.7378   6.8896
     6.9468   7.4651

          k = 0.7622 0.0645-0.2971 ( 36472 PWs)   bands (ev):

   -44.1544 -44.1544 -22.2892 -22.2892 -22.2543 -22.2543 -22.0700 -22.0700
    -6.7763  -6.7763  -6.2854  -6.2854  -5.6150  -5.6150  -5.1228  -5.1228
    -4.6174  -4.6174   0.2849   0.2849   0.7064   0.7064   1.0937   1.0937
     1.5705   1.5705   1.9192   1.9192   2.3384   2.3384   2.7876   2.7876
     2.9875   2.9875   3.4787   3.4787   3.5614   3.5614   3.7746   3.7746
     4.2319   4.2319   5.9852   5.9852   6.3595   6.3595   6.7741   6.7741
     7.3137   7.3138

          k = 1.0162 0.1290 0.0000 ( 36514 PWs)   bands (ev):

   -44.1541 -44.1540 -22.2870 -22.2870 -22.2645 -22.2645 -22.0687 -22.0687
    -6.6814  -6.6612  -5.7684  -5.7594  -5.6436  -5.6302  -5.5650  -5.5627
    -4.5868  -4.5693   0.0857   0.1244   0.4360   0.4665   1.0083   1.0279
     1.4749   1.6678   2.2250   2.3187   2.3311   2.3455   2.7984   2.8298
     2.8665   2.9449   3.2247   3.2978   3.2979   3.5068   3.5611   3.6561
     3.8395   3.9230   6.3415   6.3789   6.4334   6.5289   6.9261   6.9832
     6.9853   6.9989

          k = 1.0162 0.1290 0.1485 ( 36524 PWs)   bands (ev):

   -44.1541 -44.1540 -22.2870 -22.2870 -22.2645 -22.2645 -22.0687 -22.0687
    -6.6778  -6.6635  -5.7689  -5.7608  -5.6736  -5.6689  -5.5262  -5.5218
    -4.5905  -4.5781   0.0035   0.0162   0.6545   0.6625   1.0401   1.0601
     1.4677   1.5709   1.9223   1.9739   2.3536   2.3672   2.7130   2.8192
     2.9640   2.9815   3.1607   3.2323   3.5263   3.5858   3.6997   3.7073
     4.1112   4.1378   5.8285   5.8605   6.3690   6.4458   6.8753   6.9071
     7.2156   7.2307

          k = 1.0162 0.1290-0.2971 ( 36516 PWs)   bands (ev):

   -44.1540 -44.1540 -22.2870 -22.2870 -22.2645 -22.2645 -22.0687 -22.0687
    -6.6701  -6.6701  -5.7661  -5.7661  -5.6921  -5.6921  -5.4971  -5.4971
    -4.5906  -4.5906  -0.0489  -0.0489   0.8952   0.8952   1.0728   1.0728
     1.5028   1.5028   1.6063   1.6063   2.3533   2.3533   2.7735   2.7735
     2.9760   2.9760   3.1928   3.1928   3.5891   3.5891   3.7607   3.7607
     4.6332   4.6332   5.2381   5.2381   6.3392   6.3392   6.9079   6.9079
     7.2774   7.2774

          k =-0.7622-0.3224 0.0000 ( 36511 PWs)   bands (ev):

   -44.1544 -44.1544 -22.2892 -22.2892 -22.2543 -22.2543 -22.0700 -22.0699
    -6.8153  -6.7187  -6.3447  -6.1038  -5.9866  -5.2841  -5.2799  -5.0525
    -4.6499  -4.6029   0.0120   0.2767   0.6279   1.1351   1.1805   1.2092
     1.4999   1.6588   1.9307   1.9495   2.3475   2.4519   2.5453   2.7612
     2.7894   3.1622   3.2509   3.3692   3.5988   3.6555   3.7683   3.8212
     3.9659   4.4969   5.7510   6.1471   6.2769   6.6292   6.7103   6.8699
     7.1506   7.5509

          k =-0.7622-0.3224 0.1485 ( 36492 PWs)   bands (ev):

   -44.1544 -44.1544 -22.2892 -22.2892 -22.2543 -22.2543 -22.0700 -22.0699
    -6.7997  -6.7304  -6.3374  -6.2139  -5.8282  -5.4161  -5.1979  -5.0744
    -4.6372  -4.6053   0.0835   0.3882   0.5310   0.9355   1.1624   1.2024
     1.5483   1.6559   1.6918   2.1892   2.2385   2.6380   2.6793   2.8268
     2.8717   3.1757   3.1842   3.3504   3.4781   3.6235   3.6562   3.8547
     3.9290   4.7674   5.3181   6.2521   6.5118   6.5837   6.7088   6.9164
     6.9865   7.4146

          k =-0.7622-0.3224-0.2971 ( 36508 PWs)   bands (ev):

   -44.1544 -44.1544 -22.2892 -22.2892 -22.2543 -22.2543 -22.0700 -22.0700
    -6.7631  -6.7631  -6.3023  -6.3023  -5.6101  -5.6101  -5.1292  -5.1292
    -4.6163  -4.6163   0.2776   0.2776   0.7153   0.7153   1.0377   1.0377
     1.5801   1.5801   2.0323   2.0323   2.4410   2.4410   2.8110   2.8110
     2.9917   2.9917   3.3176   3.3176   3.5700   3.5700   3.7761   3.7761
     4.1733   4.1733   5.9300   5.9300   6.3543   6.3543   6.8682   6.8682
     7.2434   7.2434

          k =-0.5081-0.2579 0.0000 ( 36480 PWs)   bands (ev):

   -44.1554 -44.1554 -22.2940 -22.2940 -22.2302 -22.2302 -22.0731 -22.0730
    -7.1971  -6.8831  -6.6130  -6.5346  -6.3526  -5.2173  -5.1349  -4.7721
    -4.7049  -4.4163   0.5058   0.7372   0.7460   1.2697   1.3261   1.5475
     1.6490   1.8201   1.9434   2.1977   2.2386   2.2926   2.4517   3.2628
     3.3267   3.3355   3.4272   3.4642   3.7372   3.8518   3.9219   4.0771
     4.6576   5.3404   5.3437   5.7598   5.9636   6.6311   6.6661   6.7442
     7.2957   7.5509

          k =-0.5081-0.2579 0.1485 ( 36485 PWs)   bands (ev):

   -44.1554 -44.1554 -22.2940 -22.2940 -22.2302 -22.2302 -22.0730 -22.0730
    -7.1638  -6.9470  -6.6180  -6.5958  -6.1661  -5.5038  -4.9448  -4.7397
    -4.6975  -4.4463   0.5149   0.7590   0.8888   1.0857   1.2951   1.4314
     1.5291   1.6850   2.0526   2.0639   2.3286   2.6203   2.8693   3.2792
     3.2996   3.3403   3.4519   3.4812   3.6295   3.7479   3.8273   4.1391
     4.3695   4.5962   5.9781   6.0483   6.2089   6.6328   6.6611   6.6831
     7.1504   7.4713

          k =-0.5081-0.2579-0.2971 ( 36478 PWs)   bands (ev):

   -44.1554 -44.1554 -22.2940 -22.2940 -22.2302 -22.2302 -22.0730 -22.0730
    -7.0703  -7.0703  -6.6199  -6.6199  -5.8493  -5.8493  -4.8238  -4.8238
    -4.5468  -4.5468   0.6307   0.6307   1.0982   1.0982   1.2388   1.2388
     1.4479   1.4479   2.0597   2.0597   2.8105   2.8105   3.1620   3.1620
     3.3364   3.3364   3.3973   3.3973   3.6972   3.6972   3.8332   3.8332
     4.2391   4.2391   6.1941   6.1941   6.6030   6.6030   6.7398   6.7398
     7.0836   7.0836

          k =-0.2541-0.1934 0.0000 ( 36410 PWs)   bands (ev):

   -44.1563 -44.1563 -22.2988 -22.2988 -22.2060 -22.2060 -22.0761 -22.0760
    -7.5183  -7.0805  -6.8246  -6.7394  -6.5485  -5.2691  -5.1269  -4.8800
    -4.8064  -4.0037   0.5779   0.8817   0.9296   1.1921   1.2996   1.5049
     1.9621   2.1606   2.2206   2.4842   2.5743   3.0616   3.4046   3.5341
     3.5904   3.6872   3.7923   3.7967   3.9686   4.1238   4.1801   4.2323
     4.4002   4.6986   5.7193   6.0151   6.3409   6.5819   6.6024   6.8530
     6.9970   7.0674

          k =-0.2541-0.1934 0.1485 ( 36427 PWs)   bands (ev):

   -44.1563 -44.1563 -22.2988 -22.2988 -22.2060 -22.2060 -22.0761 -22.0761
    -7.4803  -7.2035  -6.7883  -6.7446  -6.3925  -5.6358  -4.9313  -4.8253
    -4.7024  -4.0956   0.5980   0.9062   1.0083   1.0365   1.1564   1.6343
     1.8745   2.3057   2.5008   2.5195   2.5857   2.9130   3.2490   3.3301
     3.5096   3.6413   3.7337   3.8824   3.9702   4.0668   4.1699   4.2250
     4.6821   5.0446   5.7834   5.8218   6.1912   6.3234   6.5659   6.6825
     7.2225   7.2755

          k =-0.2541-0.1934-0.2971 ( 36422 PWs)   bands (ev):

   -44.1563 -44.1563 -22.2988 -22.2988 -22.2060 -22.2060 -22.0761 -22.0761
    -7.3697  -7.3697  -6.7613  -6.7613  -6.0483  -6.0483  -4.8717  -4.8717
    -4.3499  -4.3499   0.7250   0.7250   1.0178   1.0178   1.3162   1.3162
     2.2796   2.2796   2.5811   2.5811   2.7290   2.7290   3.1151   3.1151
     3.4994   3.4994   3.7986   3.7986   4.0099   4.0099   4.2162   4.2162
     5.1987   5.1987   5.6982   5.6982   6.0579   6.0579   6.5651   6.5651
     7.4099   7.4100

          k = 0.0000-0.1290 0.0000 ( 36417 PWs)   bands (ev):

   -44.1567 -44.1567 -22.3007 -22.3007 -22.1959 -22.1959 -22.0774 -22.0773
    -7.6372  -7.1703  -6.9265  -6.7784  -6.5997  -5.3020  -5.1384  -4.9187
    -4.8507  -3.8669   0.4846   0.7132   0.7881   1.0540   1.5083   1.6188
     2.4185   2.5107   2.6079   3.0045   3.0459   3.1193   3.1367   3.4482
     3.4767   3.5704   3.7890   4.0153   4.0895   4.2286   4.2671   4.6236
     5.1761   5.5101   5.5828   5.5985   5.8692   6.0980   6.4711   6.7553
     6.9342   7.2844

          k = 0.0000-0.1290 0.1485 ( 36419 PWs)   bands (ev):

   -44.1567 -44.1567 -22.3007 -22.3007 -22.1959 -22.1959 -22.0774 -22.0773
    -7.5982  -7.3094  -6.8509  -6.7848  -6.4637  -5.6920  -4.9463  -4.8657
    -4.7046  -3.9825   0.5192   0.7513   0.9251   1.0503   1.0825   2.0513
     2.1383   2.4421   2.5755   3.0496   3.0999   3.1033   3.2696   3.3308
     3.6690   3.6795   3.7578   3.9789   4.0421   4.2544   4.2822   4.6423
     4.9439   5.0497   5.7098   5.9161   6.0606   6.0898   6.5717   6.7513
     6.7713   7.2692

          k = 0.0000-0.1290-0.2971 ( 36464 PWs)   bands (ev):

   -44.1567 -44.1567 -22.3007 -22.3007 -22.1959 -22.1959 -22.0774 -22.0774
    -7.4841  -7.4841  -6.8053  -6.8053  -6.1211  -6.1211  -4.9023  -4.9023
    -4.2907  -4.2907   0.7033   0.7033   0.8612   0.8612   1.4713   1.4713
     2.5044   2.5044   2.7128   2.7128   3.0654   3.0654   3.3070   3.3070
     3.7914   3.7914   3.8878   3.8878   4.2313   4.2313   4.4370   4.4370
     4.7276   4.7276   5.9470   5.9470   6.2726   6.2726   6.3814   6.3814
     7.1783   7.1784

          k = 1.0162 0.0000 0.0000 ( 36499 PWs)   bands (ev):

   -44.1540 -44.1540 -22.2870 -22.2870 -22.2645 -22.2645 -22.0687 -22.0687
    -6.6814  -6.6612  -5.7677  -5.7601  -5.6436  -5.6302  -5.5654  -5.5622
    -4.5868  -4.5693   0.0813   0.1290   0.4318   0.4709   1.0058   1.0322
     1.4806   1.6584   2.2304   2.3012   2.3287   2.3488   2.8028   2.8215
     2.9124   2.9272   3.2114   3.2982   3.3112   3.5020   3.5465   3.6716
     3.8213   3.9331   6.3396   6.3821   6.4291   6.5338   6.9376   6.9789
     6.9861   7.0012

          k = 1.0162 0.0000 0.1485 ( 36485 PWs)   bands (ev):

   -44.1540 -44.1540 -22.2870 -22.2870 -22.2645 -22.2645 -22.0687 -22.0687
    -6.6778  -6.6635  -5.7684  -5.7613  -5.6738  -5.6686  -5.5265  -5.5215
    -4.5905  -4.5781   0.0019   0.0174   0.6535   0.6641   1.0477   1.0537
     1.4722   1.5683   1.9266   1.9643   2.3476   2.3621   2.6979   2.8375
     2.9708   3.0287   3.1177   3.2339   3.5253   3.6361   3.6566   3.6924
     4.1083   4.1465   5.8232   5.8680   6.3666   6.4481   6.8835   6.9048
     7.2219   7.2246

          k = 1.0162 0.0000-0.2971 ( 36514 PWs)   bands (ev):

   -44.1540 -44.1540 -22.2870 -22.2870 -22.2645 -22.2645 -22.0687 -22.0687
    -6.6701  -6.6701  -5.7661  -5.7661  -5.6921  -5.6921  -5.4971  -5.4971
    -4.5906  -4.5906  -0.0490  -0.0490   0.8945   0.8945   1.0753   1.0753
     1.5015   1.5015   1.6077   1.6077   2.3432   2.3432   2.7618   2.7618
     3.0311   3.0311   3.1581   3.1581   3.5965   3.5965   3.7517   3.7517
     4.6335   4.6335   5.2399   5.2399   6.3389   6.3389   6.9104   6.9104
     7.2772   7.2772

          k = 1.2703 0.0645 0.0000 ( 36468 PWs)   bands (ev):

   -44.1544 -44.1544 -22.2892 -22.2892 -22.2543 -22.2543 -22.0700 -22.0699
    -6.8027  -6.7230  -6.3543  -6.1010  -5.9877  -5.2893  -5.2792  -5.0528
    -4.6524  -4.5991   0.0185   0.2656   0.6051   1.1270   1.1912   1.1936
     1.5033   1.7087   1.9218   1.9906   2.4119   2.4600   2.5636   2.7757
     2.8104   3.0827   3.2573   3.4402   3.5483   3.5496   3.8016   3.8267
     3.9381   4.4381   5.7528   6.1489   6.3078   6.5719   6.7499   6.9251
     7.1145   7.5595

          k = 1.2703 0.0645 0.1485 ( 36490 PWs)   bands (ev):

   -44.1544 -44.1544 -22.2892 -22.2892 -22.2543 -22.2543 -22.0700 -22.0699
    -6.7887  -6.7316  -6.3468  -6.2164  -5.8263  -5.4157  -5.2016  -5.0753
    -4.6388  -4.6025   0.0857   0.3831   0.5195   0.9204   1.1553   1.2037
     1.6044   1.6518   1.6573   2.2662   2.3166   2.6381   2.6851   2.8447
     2.8789   3.0956   3.2271   3.3573   3.4276   3.5855   3.7120   3.8162
     3.8529   4.7664   5.2937   6.2741   6.4808   6.5926   6.7118   6.9468
     7.0002   7.3878

          k = 1.2703 0.0645-0.2971 ( 36480 PWs)   bands (ev):

   -44.1544 -44.1544 -22.2892 -22.2892 -22.2543 -22.2543 -22.0700 -22.0700
    -6.7574  -6.7574  -6.3096  -6.3096  -5.6081  -5.6081  -5.1319  -5.1319
    -4.6159  -4.6159   0.2742   0.2742   0.7189   0.7189   1.0205   1.0205
     1.5831   1.5831   2.0656   2.0656   2.5006   2.5006   2.8395   2.8395
     2.9829   2.9829   3.2416   3.2416   3.5799   3.5799   3.7612   3.7612
     4.1510   4.1510   5.9090   5.9090   6.3510   6.3510   6.9212   6.9212
     7.2026   7.2026

          k =-0.5081-0.3869 0.0000 ( 36463 PWs)   bands (ev):

   -44.1554 -44.1554 -22.2940 -22.2940 -22.2302 -22.2302 -22.0731 -22.0730
    -7.1797  -6.8787  -6.6302  -6.5314  -6.3660  -5.2150  -5.1439  -4.7754
    -4.6987  -4.4173   0.5139   0.7284   0.7313   1.3353   1.4085   1.5902
     1.6352   1.8347   1.9070   2.2394   2.2687   2.3004   2.4535   3.2021
     3.3118   3.3440   3.3548   3.4713   3.7015   3.7637   3.9005   4.0632
     4.6467   5.3169   5.3345   5.6857   6.0213   6.6592   6.7435   6.7811
     7.2075   7.5562

          k =-0.5081-0.3869 0.1485 ( 36477 PWs)   bands (ev):

   -44.1554 -44.1554 -22.2940 -22.2940 -22.2302 -22.2302 -22.0730 -22.0730
    -7.1466  -6.9355  -6.6358  -6.6111  -6.1675  -5.5016  -4.9584  -4.7389
    -4.6936  -4.4444   0.5220   0.7612   0.8750   1.0820   1.4052   1.4368
     1.5791   1.6872   2.0659   2.0719   2.3214   2.6690   2.8887   3.1742
     3.3142   3.3379   3.3765   3.4848   3.6336   3.7205   3.7764   4.1033
     4.3053   4.5916   5.9241   6.0550   6.2062   6.5670   6.7638   6.7990
     7.0708   7.4771

          k =-0.5081-0.3869-0.2971 ( 36492 PWs)   bands (ev):

   -44.1554 -44.1554 -22.2940 -22.2940 -22.2302 -22.2302 -22.0730 -22.0730
    -7.0540  -7.0540  -6.6400  -6.6400  -5.8469  -5.8469  -4.8335  -4.8335
    -4.5409  -4.5409   0.6403   0.6403   1.0946   1.0946   1.2256   1.2256
     1.5426   1.5426   2.0553   2.0553   2.8366   2.8366   3.2087   3.2087
     3.2701   3.2701   3.3568   3.3568   3.6721   3.6721   3.8232   3.8232
     4.1746   4.1746   6.1560   6.1560   6.6305   6.6305   6.7522   6.7522
     7.0932   7.0932

          k =-0.2541-0.3224 0.0000 ( 36485 PWs)   bands (ev):

   -44.1563 -44.1563 -22.2988 -22.2988 -22.2060 -22.2060 -22.0761 -22.0760
    -7.5013  -7.0653  -6.8214  -6.7592  -6.5748  -5.2669  -5.1377  -4.8852
    -4.7981  -4.0052   0.6051   0.9440   1.0099   1.2413   1.3718   1.5032
     1.9961   2.1920   2.2228   2.4011   2.5180   3.1810   3.2525   3.3489
     3.5366   3.6909   3.7633   3.8179   3.9502   4.0592   4.1329   4.1917
     4.3946   4.6323   5.7966   6.0289   6.3757   6.5311   6.6874   6.8818
     6.9474   7.0063

          k =-0.2541-0.3224 0.1485 ( 36445 PWs)   bands (ev):

   -44.1563 -44.1563 -22.2988 -22.2988 -22.2060 -22.2060 -22.0761 -22.0761
    -7.4633  -7.1863  -6.8041  -6.7648  -6.4012  -5.6337  -4.9527  -4.8222
    -4.6937  -4.0952   0.6178   0.9546   1.0657   1.1249   1.2284   1.6596
     1.8813   2.2993   2.4192   2.5109   2.5967   2.9045   3.2663   3.3252
     3.3426   3.5112   3.7630   3.8796   3.9270   4.0605   4.0897   4.1484
     4.6837   5.0087   5.7682   5.8436   6.1794   6.3077   6.6691   6.7224
     7.1666   7.2668

          k =-0.2541-0.3224-0.2971 ( 36442 PWs)   bands (ev):

   -44.1563 -44.1563 -22.2988 -22.2988 -22.2060 -22.2060 -22.0761 -22.0761
    -7.3525  -7.3525  -6.7829  -6.7829  -6.0480  -6.0480  -4.8807  -4.8807
    -4.3456  -4.3456   0.7355   0.7355   1.1501   1.1501   1.3306   1.3306
     2.2726   2.2726   2.5151   2.5151   2.7425   2.7425   3.1725   3.1725
     3.3253   3.3253   3.7928   3.7928   4.0050   4.0050   4.1346   4.1346
     5.1931   5.1931   5.6572   5.6572   6.0285   6.0285   6.6729   6.6729
     7.3756   7.3757

          k = 0.0000-0.2579 0.0000 ( 36445 PWs)   bands (ev):

   -44.1567 -44.1567 -22.3007 -22.3007 -22.1959 -22.1959 -22.0774 -22.0773
    -7.6222  -7.1540  -6.9237  -6.7978  -6.6259  -5.3005  -5.1482  -4.9264
    -4.8408  -3.8685   0.5326   0.8024   0.8299   1.0937   1.5626   1.6427
     2.4277   2.5079   2.6257   3.0332   3.0385   3.1318   3.2192   3.2412
     3.2574   3.5444   3.7403   3.9902   4.0881   4.0894   4.1429   4.6271
     5.1583   5.4409   5.6158   5.6501   5.9015   6.1588   6.5706   6.6706
     6.9360   7.2456

          k = 0.0000-0.2579 0.1485 ( 36452 PWs)   bands (ev):

   -44.1567 -44.1567 -22.3007 -22.3007 -22.1959 -22.1959 -22.0774 -22.0773
    -7.5831  -7.2935  -6.8624  -6.8039  -6.4751  -5.6905  -4.9680  -4.8613
    -4.6964  -3.9824   0.5555   0.8597   0.9850   1.0795   1.1114   2.0744
     2.1717   2.4522   2.5915   3.0374   3.0945   3.0951   3.1674   3.1920
     3.6415   3.6589   3.6781   3.9272   4.0382   4.1337   4.1715   4.6458
     4.9384   5.0291   5.7354   5.9231   6.0828   6.1029   6.5372   6.7735
     6.8276   7.2314

          k = 0.0000-0.2579-0.2971 ( 36454 PWs)   bands (ev):

   -44.1567 -44.1567 -22.3007 -22.3007 -22.1959 -22.1959 -22.0774 -22.0774
    -7.4688  -7.4688  -6.8244  -6.8244  -6.1220  -6.1220  -4.9104  -4.9104
    -4.2871  -4.2871   0.7376   0.7376   0.9496   0.9496   1.4956   1.4956
     2.5170   2.5170   2.7297   2.7297   3.0546   3.0546   3.1575   3.1575
     3.7682   3.7682   3.8753   3.8753   4.0934   4.0934   4.4304   4.4304
     4.7292   4.7292   5.9153   5.9153   6.3111   6.3111   6.3850   6.3850
     7.1695   7.1695

          k = 1.5243 0.0000 0.0000 ( 36439 PWs)   bands (ev):

   -44.1554 -44.1554 -22.2940 -22.2940 -22.2302 -22.2302 -22.0731 -22.0730
    -7.1720  -6.8775  -6.6369  -6.5301  -6.3719  -5.2140  -5.1477  -4.7763
    -4.6966  -4.4177   0.5182   0.7223   0.7254   1.3387   1.5353   1.5538
     1.6188   1.8419   1.8996   2.2629   2.2705   2.2892   2.4659   3.1487
     3.2871   3.3265   3.3681   3.5423   3.6590   3.6897   3.8951   4.0769
     4.6418   5.3015   5.3312   5.6582   6.0475   6.6231   6.8106   6.8170
     7.1614   7.5847

          k = 1.5243 0.0000 0.1485 ( 36476 PWs)   bands (ev):

   -44.1554 -44.1554 -22.2940 -22.2940 -22.2302 -22.2302 -22.0730 -22.0730
    -7.1389  -6.9307  -6.6424  -6.6187  -6.1680  -5.5007  -4.9638  -4.7389
    -4.6919  -4.4436   0.5253   0.7605   0.8694   1.0805   1.4275   1.5047
     1.5521   1.7003   2.0739   2.0791   2.3126   2.6826   2.9017   3.1208
     3.2733   3.3513   3.3642   3.5737   3.5779   3.7008   3.7439   4.1131
     4.2654   4.5899   5.8985   6.0615   6.2056   6.5389   6.8093   6.8602
     7.0226   7.4881

          k = 1.5243 0.0000-0.2971 ( 36508 PWs)   bands (ev):

   -44.1554 -44.1554 -22.2940 -22.2940 -22.2302 -22.2302 -22.0730 -22.0730
    -7.0467  -7.0467  -6.6488  -6.6488  -5.8459  -5.8459  -4.8374  -4.8374
    -4.5386  -4.5386   0.6441   0.6441   1.0927   1.0927   1.2210   1.2210
     1.5877   1.5877   2.0508   2.0508   2.8477   2.8477   3.1611   3.1611
     3.2940   3.2940   3.3626   3.3626   3.6510   3.6510   3.8204   3.8204
     4.1477   4.1477   6.1406   6.1406   6.6252   6.6252   6.7707   6.7707
     7.1015   7.1015

          k =-0.2541-0.4514 0.0000 ( 36444 PWs)   bands (ev):

   -44.1563 -44.1563 -22.2988 -22.2988 -22.2060 -22.2060 -22.0761 -22.0760
    -7.4885  -7.0549  -6.8192  -6.7714  -6.5956  -5.2654  -5.1456  -4.8868
    -4.7942  -4.0062   0.6131   0.9549   1.1206   1.2817   1.4615   1.5000
     2.0347   2.2116   2.2173   2.3059   2.4394   3.1443   3.2257   3.2895
     3.5367   3.7032   3.7434   3.7503   3.9541   4.0075   4.1030   4.1657
     4.4540   4.5466   5.8603   6.0358   6.3923   6.4890   6.7392   6.8797
     6.9052   6.9973

          k =-0.2541-0.4514 0.1485 ( 36461 PWs)   bands (ev):

   -44.1563 -44.1563 -22.2988 -22.2988 -22.2060 -22.2060 -22.0761 -22.0761
    -7.4504  -7.1733  -6.8166  -6.7795  -6.4072  -5.6323  -4.9662  -4.8213
    -4.6879  -4.0950   0.6222   0.9725   1.0786   1.2605   1.3096   1.6806
     1.8958   2.2728   2.3220   2.4742   2.6113   2.8926   3.2112   3.2249
     3.3641   3.5141   3.7892   3.8318   3.9070   4.0027   4.0719   4.1093
     4.7000   4.9759   5.7602   5.8622   6.1902   6.2569   6.7361   6.7507
     7.1342   7.2608

          k =-0.2541-0.4514-0.2971 ( 36490 PWs)   bands (ev):

   -44.1563 -44.1563 -22.2988 -22.2988 -22.2060 -22.2060 -22.0761 -22.0761
    -7.3394  -7.3394  -6.7991  -6.7991  -6.0476  -6.0476  -4.8870  -4.8870
    -4.3425  -4.3425   0.7365   0.7365   1.2712   1.2712   1.3489   1.3489
     2.2493   2.2493   2.4498   2.4498   2.7493   2.7493   3.1896   3.1896
     3.2406   3.2406   3.7863   3.7863   4.0031   4.0031   4.0822   4.0822
     5.1911   5.1911   5.6340   5.6340   6.0020   6.0020   6.7379   6.7379
     7.3529   7.3530

          k = 0.0000-0.3869 0.0000 ( 36477 PWs)   bands (ev):

   -44.1567 -44.1567 -22.3007 -22.3007 -22.1959 -22.1959 -22.0774 -22.0773
    -7.6063  -7.1373  -6.9208  -6.8150  -6.6556  -5.2989  -5.1585  -4.9296
    -4.8347  -3.8701   0.5565   0.8174   0.9900   1.1598   1.6278   1.6649
     2.4373   2.4938   2.6447   2.9491   3.0197   3.0261   3.0916   3.1270
     3.3572   3.5178   3.7680   3.9065   3.9744   4.0081   4.0890   4.6309
     5.1409   5.4021   5.6332   5.7275   5.9355   6.1934   6.5669   6.6422
     6.9376   7.2127

          k = 0.0000-0.3869 0.1485 ( 36452 PWs)   bands (ev):

   -44.1567 -44.1567 -22.3007 -22.3007 -22.1959 -22.1959 -22.0774 -22.0773
    -7.5671  -7.2766  -6.8765  -6.8226  -6.4862  -5.6889  -4.9867  -4.8593
    -4.6888  -3.9823   0.5680   0.9762   1.0411   1.1285   1.1986   2.1013
     2.1983   2.4627   2.6086   2.8836   2.9168   3.0244   3.0865   3.2819
     3.6194   3.6380   3.6792   3.9084   4.0054   4.0340   4.0600   4.6495
     4.9329   5.0194   5.7704   5.9308   6.0892   6.1026   6.4965   6.7757
     6.8783   7.1942

          k = 0.0000-0.3869-0.2971 ( 36454 PWs)   bands (ev):

   -44.1567 -44.1567 -22.3007 -22.3007 -22.1959 -22.1959 -22.0774 -22.0774
    -7.4524  -7.4524  -6.8447  -6.8447  -6.1227  -6.1227  -4.9184  -4.9184
    -4.2835  -4.2835   0.7394   0.7394   1.1007   1.1007   1.5222   1.5222
     2.5302   2.5302   2.6863   2.6863   3.0026   3.0026   3.0431   3.0431
     3.7791   3.7791   3.8627   3.8627   3.9865   3.9865   4.4176   4.4176
     4.7308   4.7308   5.8823   5.8823   6.3342   6.3342   6.3889   6.3889
     7.1438   7.1438

          k =-2.0325 0.0000 0.0000 ( 36452 PWs)   bands (ev):

   -44.1567 -44.1567 -22.3007 -22.3007 -22.1959 -22.1959 -22.0774 -22.0773
    -7.5994  -7.1304  -6.9196  -6.8211  -6.6692  -5.2982  -5.1630  -4.9301
    -4.8329  -3.8708   0.5601   0.8237   1.0978   1.1655   1.6691   1.6736
     2.4414   2.4804   2.6530   2.8038   2.9329   3.0137   3.1208   3.1250
     3.4504   3.5065   3.7948   3.7949   3.9468   3.9618   4.0888   4.6325
     5.1339   5.3911   5.6404   5.7642   5.9510   6.2036   6.5166   6.6659
     6.9382   7.2004

          k =-2.0325 0.0000 0.1485 ( 36456 PWs)   bands (ev):

   -44.1567 -44.1567 -22.3007 -22.3007 -22.1959 -22.1959 -22.0774 -22.0773
    -7.5602  -7.2692  -6.8830  -6.8304  -6.4906  -5.6883  -4.9939  -4.8588
    -4.6859  -3.9823   0.5680   1.0191   1.0522   1.1688   1.2647   2.1127
     2.2075   2.4671   2.6160   2.7542   2.8143   3.0188   3.0828   3.3444
     3.5987   3.6294   3.7006   3.8795   3.9576   4.0197   4.0323   4.6511
     4.9306   5.0174   5.7891   5.9341   6.0750   6.1104   6.4789   6.7767
     6.8930   7.1800

          k =-2.0325 0.0000-0.2971 ( 36460 PWs)   bands (ev):

   -44.1567 -44.1567 -22.3007 -22.3007 -22.1959 -22.1959 -22.0774 -22.0774
    -7.4453  -7.4453  -6.8534  -6.8534  -6.1229  -6.1229  -4.9218  -4.9218
    -4.2820  -4.2820   0.7366   0.7366   1.1808   1.1808   1.5350   1.5350
     2.5359   2.5359   2.6170   2.6170   2.9727   2.9727   3.0382   3.0382
     3.7813   3.7813   3.8575   3.8575   3.9513   3.9513   4.4128   4.4128
     4.7316   4.7316   5.8673   5.8673   6.3410   6.3410   6.3906   6.3906
     7.1309   7.1309

     the Fermi energy is     5.3011 ev

!    total energy              =   -4240.93558715 Ry

     total all-electron energy =   -150287.629282 Ry
     estimated scf accuracy    <          9.2E-11 Ry
     smearing contrib. (-TS)   =       0.00001238 Ry
     internal energy E=F+TS    =   -4240.93559954 Ry

     The total energy is F=E-TS. E is the sum of the following terms:
     one-electron contribution =    -164.82183359 Ry
     hartree contribution      =     115.87704226 Ry
     xc contribution           =    -201.41251913 Ry
     ewald contribution        =    -223.06940079 Ry
     one-center paw contrib.   =   -3767.50888829 Ry

     convergence has been achieved in  19 iterations

     Forces acting on atoms (cartesian axes, Ry/au):

     atom    1 type  1   force =     0.00000000   -0.02190422    0.00000000
     atom    2 type  1   force =     0.00000000    0.02190422    0.00000000
     atom    3 type  2   force =     0.00000000    0.00218553    0.00000000
     atom    4 type  2   force =     0.00000000   -0.00218553    0.00000000
     atom    5 type  2   force =     0.00000000    0.00480044    0.00007277
     atom    6 type  2   force =     0.00000000   -0.00480044   -0.00007277
     atom    7 type  2   force =     0.00000000    0.00480044   -0.00007277
     atom    8 type  2   force =     0.00000000   -0.00480044    0.00007277
     atom    9 type  2   force =     0.00000000    0.01894055    0.01452171
     atom   10 type  2   force =     0.00000000   -0.01894055   -0.01452171
     atom   11 type  2   force =     0.00000000    0.01894055   -0.01452171
     atom   12 type  2   force =     0.00000000   -0.01894055    0.01452171

     Total force =     0.057791     Total SCF correction =     0.000014


     Computing stress (Cartesian axis) and pressure

          total   stress  (Ry/bohr**3)                   (kbar)     P=       -4.80
  -0.00001743   0.00000000   0.00000000           -2.56        0.00        0.00
   0.00000000  -0.00003124   0.00000000            0.00       -4.60        0.00
   0.00000000   0.00000000  -0.00004924            0.00        0.00       -7.24

 
     init_run     :     35.47s CPU     36.25s WALL (       1 calls)
     electrons    :   1840.53s CPU   1860.09s WALL (       1 calls)
     forces       :      7.16s CPU      7.40s WALL (       1 calls)
     stress       :     39.57s CPU     40.19s WALL (       1 calls)

     Called by init_run:
     wfcinit      :     30.96s CPU     31.24s WALL (       1 calls)
     potinit      :      1.38s CPU      1.43s WALL (       1 calls)
     hinit0       :      1.55s CPU      1.73s WALL (       1 calls)

     Called by electrons:
     c_bands      :   1502.75s CPU   1511.07s WALL (      20 calls)
     sum_band     :    300.29s CPU    306.72s WALL (      20 calls)
     v_of_rho     :      9.39s CPU     10.05s WALL (      20 calls)
     newd         :     19.74s CPU     24.04s WALL (      20 calls)
     PAW_pot      :      7.41s CPU      7.42s WALL (      20 calls)
     mix_rho      :      1.72s CPU      1.76s WALL (      20 calls)

     Called by c_bands:
     init_us_2    :     14.87s CPU     14.96s WALL (    2709 calls)
     cegterg      :   1418.49s CPU   1425.95s WALL (    1260 calls)

     Called by *egterg:
     cdiaghg      :     30.09s CPU     30.22s WALL (    8659 calls)
     h_psi        :   1225.49s CPU   1232.65s WALL (    8785 calls)
     s_psi        :     54.71s CPU     54.80s WALL (    8785 calls)
     g_psi        :      2.41s CPU      2.43s WALL (    7462 calls)

     Called by h_psi:
     h_psi:calbec :     47.02s CPU     47.11s WALL (    8785 calls)
     vloc_psi     :   1119.63s CPU   1126.50s WALL (    8785 calls)
     add_vuspsi   :     54.51s CPU     54.62s WALL (    8785 calls)

     General routines
     calbec       :     61.39s CPU     61.53s WALL (   10360 calls)
     fft          :      8.36s CPU      8.73s WALL (     284 calls)
     ffts         :      0.21s CPU      0.21s WALL (      40 calls)
     fftw         :   1109.50s CPU   1116.09s WALL (  460060 calls)
     interpolate  :      0.72s CPU      0.72s WALL (      20 calls)
 
     Parallel routines
     fft_scatt_xy :    301.79s CPU    303.53s WALL (  460384 calls)
     fft_scatt_yz :    203.06s CPU    204.67s WALL (  460384 calls)
 
     PWSCF        :  32m 3.00s CPU  32m28.39s WALL

 
   This run was terminated on:  15:18:56  19Nov2021            

=------------------------------------------------------------------------------=
   JOB DONE.
=------------------------------------------------------------------------------=
