
     Program PWSCF v.6.7MaX starts on 19Nov2021 at 15:12:44 

     This program is part of the open-source Quantum ESPRESSO suite
     for quantum simulation of materials; please cite
         "P. Giannozzi et al., J. Phys.:Condens. Matter 21 395502 (2009);
         "P. Giannozzi et al., J. Phys.:Condens. Matter 29 465901 (2017);
          URL http://www.quantum-espresso.org", 
     in publications or presentations arising from this work. More details at
     http://www.quantum-espresso.org/quote

     Parallel version (MPI), running on    10 processors

     MPI processes distributed on     1 nodes
     R & G space division:  proc/nbgrp/npool/nimage =      10
     Waiting for input...
     Reading input from standard input

     Current dimensions of program PWSCF are:
     Max number of different atomic species (ntypx) = 10
     Max number of k-points (npk) =  40000
     Max angular momentum in pseudopotentials (lmaxx) =  3
     file Zr.pbe-spn-kjpaw_psl.1.0.0.UPF: wavefunction(s)  4S 4P renormalized
     file Te.pbe-n-kjpaw_psl.1.0.0.UPF: wavefunction(s)  5S 5P renormalized

     Subspace diagonalization in iterative solution of the eigenvalue problem:
     a serial algorithm will be used

     Message from routine setup:
     using ibrav=0 with symmetry is DISCOURAGED, use correct ibrav instead
 
     Parallelization info
     --------------------
     sticks:   dense  smooth     PW     G-vecs:    dense   smooth      PW
     Min         734     293     87               115340    29174    4753
     Max         735     295     88               115345    29176    4760
     Sum        7345    2937    873              1153415   291749   47557
 


     bravais-lattice index     =            0
     lattice parameter (alat)  =      15.5510  a.u.
     unit-cell volume          =    3018.5011 (a.u.)^3
     number of atoms/cell      =           12
     number of atomic types    =            2
     number of electrons       =        84.00
     number of Kohn-Sham states=           50
     kinetic-energy cutoff     =      80.0000  Ry
     charge density cutoff     =     800.0000  Ry
     scf convergence threshold =      1.0E-10
     mixing beta               =       0.7000
     number of iterations used =            8  plain     mixing
     Exchange-correlation= SLA  PW   PBX  PBC
                           (   1   4   3   4   0   0   0)

     celldm(1)=  15.551040  celldm(2)=   0.000000  celldm(3)=   0.000000
     celldm(4)=   0.000000  celldm(5)=   0.000000  celldm(6)=   0.000000

     crystal axes: (cart. coord. in units of alat)
               a(1) = (   0.246007  -0.969268   0.000000 )  
               a(2) = (   0.246007   0.969268   0.000000 )  
               a(3) = (   0.000000   0.000000   1.683031 )  

     reciprocal axes: (cart. coord. in units 2 pi/alat)
               b(1) = (  2.032465 -0.515853  0.000000 )  
               b(2) = (  2.032465  0.515853  0.000000 )  
               b(3) = (  0.000000  0.000000  0.594166 )  


     PseudoPot. # 1 for Zr read from file:
     pseudo/Zr.pbe-spn-kjpaw_psl.1.0.0.UPF
     MD5 check sum: 02112c41713a0468aff2bb39ef194e36
     Pseudo is Projector augmented-wave + core cor, Zval = 12.0
     Generated using &quot;atomic&quot; code by A. Dal Corso  v.6.2.2
     Shape of augmentation charge: PSQ
     Using radial grid of 1225 points,  6 beta functions with: 
                l(1) =   0
                l(2) =   0
                l(3) =   1
                l(4) =   1
                l(5) =   2
                l(6) =   2
     Q(r) pseudized with 0 coefficients 


     PseudoPot. # 2 for Te read from file:
     pseudo/Te.pbe-n-kjpaw_psl.1.0.0.UPF
     MD5 check sum: 66247bff2bd9dbf220fbb0bf5ab56e9d
     Pseudo is Projector augmented-wave + core cor, Zval =  6.0
     Generated using &quot;atomic&quot; code by A. Dal Corso  v.6.3
     Shape of augmentation charge: PSQ
     Using radial grid of 1245 points,  6 beta functions with: 
                l(1) =   0
                l(2) =   0
                l(3) =   1
                l(4) =   1
                l(5) =   2
                l(6) =   2
     Q(r) pseudized with 0 coefficients 


     atomic species   valence    mass     pseudopotential
        Zr            12.00    91.22000     Zr( 1.00)
        Te             6.00   127.60000     Te( 1.00)

      8 Sym. Ops., with inversion, found ( 4 have fractional translation)



   Cartesian axes

     site n.     atom                  positions (alat units)
         1           Zr  tau(   1) = (   0.0000000   0.6151640   0.4207578  )
         2           Zr  tau(   2) = (   0.2460067   0.3541041   1.2622733  )
         3           Te  tau(   3) = (   0.2460067   0.3344404   0.4207578  )
         4           Te  tau(   4) = (   0.0000000   0.6348277   1.2622733  )
         5           Te  tau(   5) = (   0.2460067   0.8054756   0.2490940  )
         6           Te  tau(   6) = (   0.0000000   0.1637925   1.4339371  )
         7           Te  tau(   7) = (   0.2460067   0.8054756   0.5924216  )
         8           Te  tau(   8) = (   0.0000000   0.1637925   1.0906095  )
         9           Te  tau(   9) = (   0.0000000   0.3981503   0.7149097  )
        10           Te  tau(  10) = (   0.2460067   0.5711178   0.9681213  )
        11           Te  tau(  11) = (   0.0000000   0.3981503   0.1266058  )
        12           Te  tau(  12) = (   0.2460067   0.5711178   1.5564253  )

     number of k points=    63  Methfessel-Paxton smearing, width (Ry)=  0.0030
                       cart. coord. in units 2pi/alat
        k(    1) = (   0.0000000   0.0000000   0.0000000), wk =   0.0078125
        k(    2) = (   0.0000000   0.0000000   0.1485415), wk =   0.0156250
        k(    3) = (   0.0000000   0.0000000  -0.2970830), wk =   0.0078125
        k(    4) = (   0.2540581   0.0644816   0.0000000), wk =   0.0312500
        k(    5) = (   0.2540581   0.0644816   0.1485415), wk =   0.0625000
        k(    6) = (   0.2540581   0.0644816  -0.2970830), wk =   0.0312500
        k(    7) = (   0.5081162   0.1289633   0.0000000), wk =   0.0312500
        k(    8) = (   0.5081162   0.1289633   0.1485415), wk =   0.0625000
        k(    9) = (   0.5081162   0.1289633  -0.2970830), wk =   0.0312500
        k(   10) = (   0.7621743   0.1934449   0.0000000), wk =   0.0312500
        k(   11) = (   0.7621743   0.1934449   0.1485415), wk =   0.0625000
        k(   12) = (   0.7621743   0.1934449  -0.2970830), wk =   0.0312500
        k(   13) = (  -1.0162324  -0.2579266   0.0000000), wk =   0.0156250
        k(   14) = (  -1.0162324  -0.2579266   0.1485415), wk =   0.0312500
        k(   15) = (  -1.0162324  -0.2579266  -0.2970830), wk =   0.0156250
        k(   16) = (   0.5081162   0.0000000   0.0000000), wk =   0.0156250
        k(   17) = (   0.5081162   0.0000000   0.1485415), wk =   0.0312500
        k(   18) = (   0.5081162   0.0000000  -0.2970830), wk =   0.0156250
        k(   19) = (   0.7621743   0.0644816   0.0000000), wk =   0.0312500
        k(   20) = (   0.7621743   0.0644816   0.1485415), wk =   0.0625000
        k(   21) = (   0.7621743   0.0644816  -0.2970830), wk =   0.0312500
        k(   22) = (   1.0162324   0.1289633   0.0000000), wk =   0.0312500
        k(   23) = (   1.0162324   0.1289633   0.1485415), wk =   0.0625000
        k(   24) = (   1.0162324   0.1289633  -0.2970830), wk =   0.0312500
        k(   25) = (  -0.7621743  -0.3224082   0.0000000), wk =   0.0312500
        k(   26) = (  -0.7621743  -0.3224082   0.1485415), wk =   0.0625000
        k(   27) = (  -0.7621743  -0.3224082  -0.2970830), wk =   0.0312500
        k(   28) = (  -0.5081162  -0.2579266   0.0000000), wk =   0.0312500
        k(   29) = (  -0.5081162  -0.2579266   0.1485415), wk =   0.0625000
        k(   30) = (  -0.5081162  -0.2579266  -0.2970830), wk =   0.0312500
        k(   31) = (  -0.2540581  -0.1934449   0.0000000), wk =   0.0312500
        k(   32) = (  -0.2540581  -0.1934449   0.1485415), wk =   0.0625000
        k(   33) = (  -0.2540581  -0.1934449  -0.2970830), wk =   0.0312500
        k(   34) = (   0.0000000  -0.1289633   0.0000000), wk =   0.0156250
        k(   35) = (   0.0000000  -0.1289633   0.1485415), wk =   0.0312500
        k(   36) = (   0.0000000  -0.1289633  -0.2970830), wk =   0.0156250
        k(   37) = (   1.0162324   0.0000000   0.0000000), wk =   0.0156250
        k(   38) = (   1.0162324   0.0000000   0.1485415), wk =   0.0312500
        k(   39) = (   1.0162324   0.0000000  -0.2970830), wk =   0.0156250
        k(   40) = (   1.2702905   0.0644816   0.0000000), wk =   0.0312500
        k(   41) = (   1.2702905   0.0644816   0.1485415), wk =   0.0625000
        k(   42) = (   1.2702905   0.0644816  -0.2970830), wk =   0.0312500
        k(   43) = (  -0.5081162  -0.3868899   0.0000000), wk =   0.0312500
        k(   44) = (  -0.5081162  -0.3868899   0.1485415), wk =   0.0625000
        k(   45) = (  -0.5081162  -0.3868899  -0.2970830), wk =   0.0312500
        k(   46) = (  -0.2540581  -0.3224082   0.0000000), wk =   0.0312500
        k(   47) = (  -0.2540581  -0.3224082   0.1485415), wk =   0.0625000
        k(   48) = (  -0.2540581  -0.3224082  -0.2970830), wk =   0.0312500
        k(   49) = (   0.0000000  -0.2579266   0.0000000), wk =   0.0156250
        k(   50) = (   0.0000000  -0.2579266   0.1485415), wk =   0.0312500
        k(   51) = (   0.0000000  -0.2579266  -0.2970830), wk =   0.0156250
        k(   52) = (   1.5243485   0.0000000   0.0000000), wk =   0.0156250
        k(   53) = (   1.5243485   0.0000000   0.1485415), wk =   0.0312500
        k(   54) = (   1.5243485   0.0000000  -0.2970830), wk =   0.0156250
        k(   55) = (  -0.2540581  -0.4513715   0.0000000), wk =   0.0312500
        k(   56) = (  -0.2540581  -0.4513715   0.1485415), wk =   0.0625000
        k(   57) = (  -0.2540581  -0.4513715  -0.2970830), wk =   0.0312500
        k(   58) = (   0.0000000  -0.3868899   0.0000000), wk =   0.0156250
        k(   59) = (   0.0000000  -0.3868899   0.1485415), wk =   0.0312500
        k(   60) = (   0.0000000  -0.3868899  -0.2970830), wk =   0.0156250
        k(   61) = (  -2.0324647   0.0000000   0.0000000), wk =   0.0078125
        k(   62) = (  -2.0324647   0.0000000   0.1485415), wk =   0.0156250
        k(   63) = (  -2.0324647   0.0000000  -0.2970830), wk =   0.0078125

     Dense  grid:  1153415 G-vectors     FFT dimensions: ( 144, 144, 240)

     Smooth grid:   291749 G-vectors     FFT dimensions: (  90,  90, 150)

     Estimated max dynamical RAM per process >     657.19 MB

     Estimated total dynamical RAM >       6.42 GB

     Initial potential from superposition of free atoms

     starting charge   83.99353, renormalised to   84.00000
     Starting wfcs are   66 randomized atomic wfcs
     Checking if some PAW data can be deallocated... 

     total cpu time spent up to now is       32.3 secs

     Self-consistent Calculation

     iteration #  1     ecut=    80.00 Ry     beta= 0.70
     Davidson diagonalization with overlap
     ethr =  1.00E-02,  avg # of iterations =  2.0

     Threshold (ethr) on eigenvalues was too large:
     Diagonalizing with lowered threshold

     Davidson diagonalization with overlap
     ethr =  3.61E-04,  avg # of iterations =  4.1

     total cpu time spent up to now is      159.2 secs

     total energy              =   -4240.70093483 Ry
     estimated scf accuracy    <       0.42243100 Ry

     iteration #  2     ecut=    80.00 Ry     beta= 0.70
     Davidson diagonalization with overlap
     ethr =  5.03E-04,  avg # of iterations =  7.3

     total cpu time spent up to now is      241.3 secs

     total energy              =   -4240.61365799 Ry
     estimated scf accuracy    <       2.15921276 Ry

     iteration #  3     ecut=    80.00 Ry     beta= 0.70
     Davidson diagonalization with overlap
     ethr =  5.03E-04,  avg # of iterations =  5.1

     total cpu time spent up to now is      312.1 secs

     total energy              =   -4240.89563580 Ry
     estimated scf accuracy    <       0.02419768 Ry

     iteration #  4     ecut=    80.00 Ry     beta= 0.70
     Davidson diagonalization with overlap
     c_bands:  1 eigenvalues not converged
     c_bands:  1 eigenvalues not converged
     c_bands:  1 eigenvalues not converged
     c_bands:  1 eigenvalues not converged
     ethr =  2.88E-05,  avg # of iterations = 15.0

     total cpu time spent up to now is      429.7 secs

     total energy              =   -4240.91715343 Ry
     estimated scf accuracy    <       0.08660532 Ry

     iteration #  5     ecut=    80.00 Ry     beta= 0.70
     Davidson diagonalization with overlap
     ethr =  2.88E-05,  avg # of iterations =  3.9

     total cpu time spent up to now is      490.3 secs

     total energy              =   -4240.91831602 Ry
     estimated scf accuracy    <       0.02163906 Ry

     iteration #  6     ecut=    80.00 Ry     beta= 0.70
     Davidson diagonalization with overlap
     ethr =  2.58E-05,  avg # of iterations =  3.2

     total cpu time spent up to now is      546.0 secs

     total energy              =   -4240.91997850 Ry
     estimated scf accuracy    <       0.00224507 Ry

     iteration #  7     ecut=    80.00 Ry     beta= 0.70
     Davidson diagonalization with overlap
     c_bands:  1 eigenvalues not converged
     c_bands:  1 eigenvalues not converged
     c_bands:  1 eigenvalues not converged
     c_bands:  1 eigenvalues not converged
     c_bands:  1 eigenvalues not converged
     c_bands:  2 eigenvalues not converged
     c_bands:  2 eigenvalues not converged
     c_bands:  1 eigenvalues not converged
     c_bands:  1 eigenvalues not converged
     c_bands:  1 eigenvalues not converged
     c_bands:  1 eigenvalues not converged
     ethr =  2.67E-06,  avg # of iterations = 14.8

     total cpu time spent up to now is      646.3 secs

     total energy              =   -4240.92144632 Ry
     estimated scf accuracy    <       0.00266658 Ry

     iteration #  8     ecut=    80.00 Ry     beta= 0.70
     Davidson diagonalization with overlap
     ethr =  2.67E-06,  avg # of iterations =  2.7

     total cpu time spent up to now is      699.8 secs

     total energy              =   -4240.92144777 Ry
     estimated scf accuracy    <       0.00057801 Ry

     iteration #  9     ecut=    80.00 Ry     beta= 0.70
     Davidson diagonalization with overlap
     ethr =  6.88E-07,  avg # of iterations =  5.5

     total cpu time spent up to now is      762.1 secs

     total energy              =   -4240.92156084 Ry
     estimated scf accuracy    <       0.00000919 Ry

     iteration # 10     ecut=    80.00 Ry     beta= 0.70
     Davidson diagonalization with overlap
     c_bands:  1 eigenvalues not converged
     c_bands:  1 eigenvalues not converged
     ethr =  1.09E-08,  avg # of iterations = 11.2

     total cpu time spent up to now is      865.7 secs

     total energy              =   -4240.92158538 Ry
     estimated scf accuracy    <       0.00002573 Ry

     iteration # 11     ecut=    80.00 Ry     beta= 0.70
     Davidson diagonalization with overlap
     ethr =  1.09E-08,  avg # of iterations =  3.1

     total cpu time spent up to now is      924.4 secs

     total energy              =   -4240.92158764 Ry
     estimated scf accuracy    <       0.00000121 Ry

     iteration # 12     ecut=    80.00 Ry     beta= 0.70
     Davidson diagonalization with overlap
     c_bands:  1 eigenvalues not converged
     ethr =  1.44E-09,  avg # of iterations =  7.3

     total cpu time spent up to now is     1003.1 secs

     total energy              =   -4240.92158826 Ry
     estimated scf accuracy    <       0.00000057 Ry

     iteration # 13     ecut=    80.00 Ry     beta= 0.70
     Davidson diagonalization with overlap
     ethr =  6.82E-10,  avg # of iterations =  2.5

     total cpu time spent up to now is     1054.7 secs

     total energy              =   -4240.92158831 Ry
     estimated scf accuracy    <       0.00000004 Ry

     iteration # 14     ecut=    80.00 Ry     beta= 0.70
     Davidson diagonalization with overlap
     c_bands:  1 eigenvalues not converged
     c_bands:  1 eigenvalues not converged
     ethr =  4.82E-11,  avg # of iterations =  8.3

     total cpu time spent up to now is     1139.0 secs

     total energy              =   -4240.92158834 Ry
     estimated scf accuracy    <       0.00000005 Ry

     iteration # 15     ecut=    80.00 Ry     beta= 0.70
     Davidson diagonalization with overlap
     c_bands:  1 eigenvalues not converged
     c_bands:  1 eigenvalues not converged
     ethr =  4.82E-11,  avg # of iterations =  2.7

     total cpu time spent up to now is     1190.1 secs

     total energy              =   -4240.92158834 Ry
     estimated scf accuracy    <          6.4E-09 Ry

     iteration # 16     ecut=    80.00 Ry     beta= 0.70
     Davidson diagonalization with overlap
     ethr =  7.57E-12,  avg # of iterations =  6.2

     total cpu time spent up to now is     1263.7 secs

     total energy              =   -4240.92158834 Ry
     estimated scf accuracy    <          3.4E-09 Ry

     iteration # 17     ecut=    80.00 Ry     beta= 0.70
     Davidson diagonalization with overlap
     ethr =  4.11E-12,  avg # of iterations =  1.3

     total cpu time spent up to now is     1313.8 secs

     total energy              =   -4240.92158834 Ry
     estimated scf accuracy    <          9.3E-10 Ry

     iteration # 18     ecut=    80.00 Ry     beta= 0.70
     Davidson diagonalization with overlap
     ethr =  1.11E-12,  avg # of iterations =  3.0

     total cpu time spent up to now is     1367.8 secs

     total energy              =   -4240.92158834 Ry
     estimated scf accuracy    <          3.0E-10 Ry

     iteration # 19     ecut=    80.00 Ry     beta= 0.70
     Davidson diagonalization with overlap
     c_bands:  1 eigenvalues not converged
     ethr =  3.54E-13,  avg # of iterations =  7.8

     total cpu time spent up to now is     1447.4 secs

     total energy              =   -4240.92158834 Ry
     estimated scf accuracy    <          3.4E-10 Ry

     iteration # 20     ecut=    80.00 Ry     beta= 0.70
     Davidson diagonalization with overlap
     ethr =  3.54E-13,  avg # of iterations =  1.7

     total cpu time spent up to now is     1498.3 secs

     End of self-consistent calculation

          k = 0.0000 0.0000 0.0000 ( 36359 PWs)   bands (ev):

   -44.1760 -44.1760 -22.3285 -22.3285 -22.2158 -22.2158 -22.0951 -22.0950
    -7.6227  -7.2307  -6.7657  -6.7089  -6.7046  -5.2089  -5.1866  -4.9528
    -4.8923  -3.8617   0.4981   0.6202   0.8297   1.0147   1.4540   1.6591
     2.3808   2.5157   2.5971   2.9861   3.0047   3.0806   3.3150   3.4511
     3.4760   3.4976   3.8754   4.0071   4.0348   4.2600   4.3046   4.6163
     5.3881   5.4905   5.4974   5.5462   5.8981   6.1166   6.5010   6.7215
     6.9292   7.3309

          k = 0.0000 0.0000 0.1485 ( 36415 PWs)   bands (ev):

   -44.1760 -44.1760 -22.3285 -22.3285 -22.2158 -22.2158 -22.0951 -22.0950
    -7.5855  -7.3267  -6.7768  -6.7702  -6.4668  -5.6598  -4.9815  -4.9067
    -4.6937  -3.9748   0.5241   0.6587   0.8943   1.0641   1.0923   2.1069
     2.1504   2.3992   2.4948   3.0207   3.0912   3.2167   3.2416   3.3304
     3.6302   3.6927   3.8104   3.9689   4.0178   4.2787   4.3155   4.6447
     5.0281   5.0785   5.6483   5.9225   6.0955   6.1390   6.5454   6.7512
     6.7772   7.3171

          k = 0.0000 0.0000-0.2971 ( 36410 PWs)   bands (ev):

   -44.1760 -44.1760 -22.3285 -22.3285 -22.2158 -22.2158 -22.0950 -22.0950
    -7.4789  -7.4789  -6.7792  -6.7792  -6.0969  -6.0969  -4.9417  -4.9417
    -4.2786  -4.2786   0.6740   0.6740   0.8124   0.8124   1.5331   1.5331
     2.4456   2.4456   2.7105   2.7105   3.1307   3.1307   3.2650   3.2650
     3.7996   3.7996   3.8377   3.8377   4.3003   4.3003   4.4447   4.4447
     4.7618   4.7618   5.9408   5.9408   6.2942   6.2942   6.3985   6.3985
     7.2144   7.2144

          k = 0.2541 0.0645 0.0000 ( 36396 PWs)   bands (ev):

   -44.1756 -44.1756 -22.3266 -22.3266 -22.2261 -22.2261 -22.0937 -22.0937
    -7.5087  -7.1345  -6.7214  -6.6519  -6.6128  -5.1826  -5.1645  -4.9134
    -4.8522  -3.9955   0.5863   0.7596   0.9688   1.1303   1.1981   1.5658
     1.9581   2.1588   2.2734   2.4948   2.5996   2.9152   3.5382   3.5753
     3.6117   3.6814   3.6820   3.8806   4.0455   4.1221   4.1670   4.2958
     4.4524   4.8037   5.6011   6.0258   6.3475   6.5392   6.5862   6.8051
     7.0150   7.1581

          k = 0.2541 0.0645 0.1485 ( 36423 PWs)   bands (ev):

   -44.1756 -44.1756 -22.3266 -22.3266 -22.2261 -22.2261 -22.0937 -22.0937
    -7.4725  -7.2232  -6.7272  -6.7209  -6.3825  -5.6039  -4.9571  -4.8687
    -4.6969  -4.0861   0.6006   0.8005   0.9628   1.0067   1.1451   1.6549
     1.8977   2.2282   2.5089   2.5948   2.6197   2.8882   3.2259   3.3184
     3.5700   3.6988   3.7797   3.8534   3.9618   4.0626   4.2132   4.2648
     4.7302   5.1441   5.7331   5.8245   6.2299   6.2930   6.5092   6.6411
     7.2461   7.2915

          k = 0.2541 0.0645-0.2971 ( 36436 PWs)   bands (ev):

   -44.1756 -44.1756 -22.3266 -22.3266 -22.2261 -22.2261 -22.0937 -22.0937
    -7.3689  -7.3689  -6.7322  -6.7322  -6.0218  -6.0218  -4.9091  -4.9091
    -4.3384  -4.3384   0.7149   0.7149   0.9069   0.9069   1.3646   1.3646
     2.2181   2.2181   2.6236   2.6236   2.8029   2.8029   3.0721   3.0721
     3.5478   3.5478   3.8204   3.8204   3.9659   3.9659   4.2583   4.2583
     5.2796   5.2796   5.7366   5.7366   6.0250   6.0250   6.5075   6.5075
     7.4100   7.4100

          k = 0.5081 0.1290 0.0000 ( 36499 PWs)   bands (ev):

   -44.1747 -44.1747 -22.3218 -22.3218 -22.2507 -22.2507 -22.0905 -22.0905
    -7.1915  -6.9024  -6.5937  -6.4750  -6.3395  -5.1517  -5.1491  -4.8092
    -4.7534  -4.4017   0.4404   0.7663   0.8756   1.1367   1.3727   1.4633
     1.6334   1.7342   1.9607   2.1734   2.2013   2.2681   2.7055   3.1109
     3.2652   3.3717   3.4085   3.5296   3.7691   3.8076   4.0336   4.1472
     4.8161   5.2788   5.4524   5.7784   5.8435   6.5027   6.5201   6.7781
     7.3198   7.5188

          k = 0.5081 0.1290 0.1485 ( 36476 PWs)   bands (ev):

   -44.1747 -44.1747 -22.3218 -22.3218 -22.2507 -22.2507 -22.0905 -22.0905
    -7.1595  -6.9582  -6.5961  -6.5582  -6.1400  -5.4730  -4.9476  -4.7826
    -4.7144  -4.4345   0.4766   0.7800   0.9832   1.1005   1.1773   1.4058
     1.4630   1.6844   2.0401   2.0586   2.3481   2.6103   2.9395   3.1611
     3.2488   3.3731   3.4518   3.5569   3.5952   3.8385   3.8531   4.2060
     4.4772   4.6574   5.9322   6.0008   6.2299   6.5217   6.5598   6.6831
     7.1772   7.4778

          k = 0.5081 0.1290-0.2971 ( 36466 PWs)   bands (ev):

   -44.1747 -44.1747 -22.3218 -22.3218 -22.2507 -22.2507 -22.0905 -22.0905
    -7.0708  -7.0708  -6.5938  -6.5938  -5.8206  -5.8206  -4.8526  -4.8526
    -4.5426  -4.5426   0.6215   0.6215   1.1092   1.1092   1.2647   1.2647
     1.3710   1.3710   2.0578   2.0578   2.8312   2.8312   3.0565   3.0565
     3.2700   3.2700   3.5224   3.5224   3.7291   3.7291   3.9066   3.9066
     4.3010   4.3010   6.1493   6.1493   6.5191   6.5191   6.7472   6.7472
     7.0922   7.0922

          k = 0.7622 0.1934 0.0000 ( 36521 PWs)   bands (ev):

   -44.1737 -44.1737 -22.3169 -22.3169 -22.2753 -22.2753 -22.0873 -22.0873
    -6.8136  -6.7094  -6.3274  -6.1124  -5.9413  -5.2738  -5.2377  -5.0298
    -4.6887  -4.6535  -0.0109   0.3759   0.6663   1.1699   1.1851   1.2131
     1.4766   1.5776   1.8932   1.9476   2.2355   2.5127   2.5811   2.6742
     2.7194   3.2427   3.2556   3.2922   3.6309   3.6556   3.7808   3.9448
     4.0700   4.5870   5.7348   6.1018   6.1740   6.5600   6.6487   6.7296
     7.1432   7.6245

          k = 0.7622 0.1934 0.1485 ( 36503 PWs)   bands (ev):

   -44.1737 -44.1737 -22.3169 -22.3169 -22.2753 -22.2753 -22.0873 -22.0873
    -6.7973  -6.7228  -6.3202  -6.2040  -5.7998  -5.3903  -5.1737  -5.0526
    -4.6762  -4.6527   0.0770   0.4668   0.5671   0.9649   1.1662   1.2143
     1.4923   1.5905   1.7604   2.0900   2.1305   2.6184   2.6584   2.8131
     2.8593   3.1966   3.2760   3.3492   3.4294   3.6760   3.7169   3.8506
     4.0410   4.9291   5.2266   6.1650   6.4707   6.4968   6.6353   6.8634
     6.9240   7.3894

          k = 0.7622 0.1934-0.2971 ( 36522 PWs)   bands (ev):

   -44.1737 -44.1737 -22.3169 -22.3169 -22.2753 -22.2753 -22.0873 -22.0873
    -6.7587  -6.7587  -6.2866  -6.2866  -5.5844  -5.5844  -5.1080  -5.1080
    -4.6583  -4.6583   0.3008   0.3008   0.7539   0.7539   1.0527   1.0527
     1.5681   1.5681   1.9401   1.9401   2.3877   2.3877   2.8035   2.8035
     2.9858   2.9858   3.4519   3.4519   3.5494   3.5494   3.7522   3.7522
     4.2677   4.2677   5.9130   5.9130   6.3206   6.3206   6.7152   6.7152
     7.2375   7.2375

          k =-1.0162-0.2579 0.0000 ( 36506 PWs)   bands (ev):

   -44.1733 -44.1733 -22.3147 -22.3147 -22.2857 -22.2857 -22.0860 -22.0860
    -6.6723  -6.6519  -5.7956  -5.7915  -5.5923  -5.5855  -5.5337  -5.5160
    -4.6290  -4.6166   0.1166   0.1457   0.4744   0.4901   1.0096   1.0150
     1.4719   1.6761   2.2030   2.2893   2.2936   2.2979   2.8187   2.8552
     2.8671   3.0195   3.2541   3.2569   3.3344   3.4584   3.5966   3.7192
     3.8437   3.9241   6.2685   6.3068   6.3735   6.4606   6.8874   6.9184
     6.9384   6.9402

          k =-1.0162-0.2579 0.1485 ( 36506 PWs)   bands (ev):

   -44.1733 -44.1733 -22.3147 -22.3147 -22.2857 -22.2857 -22.0860 -22.0860
    -6.6687  -6.6543  -5.7893  -5.7863  -5.6479  -5.6410  -5.4734  -5.4629
    -4.6357  -4.6271   0.0425   0.0529   0.6660   0.6672   1.0460   1.0745
     1.4551   1.5473   1.9286   1.9667   2.3319   2.3404   2.7777   2.8038
     2.9379   2.9738   3.2259   3.2636   3.4820   3.5563   3.6835   3.7463
     4.1618   4.1918   5.8055   5.8077   6.3152   6.3826   6.7464   6.7888
     7.1656   7.1805

          k =-1.0162-0.2579-0.2971 ( 36528 PWs)   bands (ev):

   -44.1733 -44.1733 -22.3147 -22.3147 -22.2857 -22.2857 -22.0860 -22.0860
    -6.6609  -6.6609  -5.7799  -5.7799  -5.6798  -5.6798  -5.4338  -5.4338
    -4.6402  -4.6402  -0.0055  -0.0055   0.8565   0.8565   1.1592   1.1592
     1.3875   1.3875   1.6761   1.6761   2.3371   2.3371   2.8049   2.8049
     2.9231   2.9231   3.2760   3.2760   3.5334   3.5334   3.7572   3.7572
     4.8046   4.8046   5.0995   5.0995   6.2904   6.2904   6.7710   6.7710
     7.2176   7.2176

          k = 0.5081 0.0000 0.0000 ( 36503 PWs)   bands (ev):

   -44.1747 -44.1747 -22.3218 -22.3218 -22.2507 -22.2507 -22.0905 -22.0905
    -7.1983  -6.9064  -6.5848  -6.4692  -6.3412  -5.1502  -5.1475  -4.8063
    -4.7574  -4.4014   0.4375   0.7653   0.8828   1.1013   1.3688   1.4434
     1.6415   1.7357   1.9711   2.1378   2.2047   2.2397   2.7157   3.0911
     3.2653   3.3718   3.4626   3.5648   3.7769   3.7928   4.0639   4.1858
     4.8185   5.2850   5.4661   5.8013   5.8251   6.4634   6.4687   6.8132
     7.3527   7.5297

          k = 0.5081 0.0000 0.1485 ( 36453 PWs)   bands (ev):

   -44.1747 -44.1747 -22.3218 -22.3218 -22.2507 -22.2507 -22.0905 -22.0905
    -7.1663  -6.9637  -6.5868  -6.5515  -6.1414  -5.4741  -4.9403  -4.7838
    -4.7164  -4.4352   0.4733   0.7750   0.9901   1.1025   1.1452   1.3888
     1.4602   1.6846   2.0418   2.0501   2.3392   2.5865   2.9297   3.1491
     3.2413   3.4032   3.4877   3.5842   3.5885   3.8545   3.8697   4.2402
     4.4935   4.6625   5.9386   6.0153   6.2310   6.4703   6.5262   6.7122
     7.2048   7.4797

          k = 0.5081 0.0000-0.2971 ( 36452 PWs)   bands (ev):

   -44.1747 -44.1747 -22.3218 -22.3218 -22.2507 -22.2507 -22.0905 -22.0905
    -7.0773  -7.0773  -6.5851  -6.5851  -5.8223  -5.8223  -4.8482  -4.8482
    -4.5451  -4.5451   0.6163   0.6163   1.1107   1.1107   1.2538   1.2538
     1.3590   1.3590   2.0561   2.0561   2.8211   2.8211   3.0289   3.0289
     3.2631   3.2631   3.5890   3.5890   3.7317   3.7317   3.9098   3.9098
     4.3279   4.3279   6.1640   6.1640   6.4867   6.4867   6.7596   6.7596
     7.0944   7.0944

          k = 0.7622 0.0645 0.0000 ( 36505 PWs)   bands (ev):

   -44.1737 -44.1737 -22.3169 -22.3169 -22.2753 -22.2753 -22.0873 -22.0873
    -6.8234  -6.7083  -6.3175  -6.1109  -5.9450  -5.2741  -5.2312  -5.0297
    -4.6849  -4.6589  -0.0181   0.3880   0.6940   1.1613   1.2158   1.2335
     1.4294   1.5339   1.8660   1.9540   2.1728   2.5028   2.5710   2.6608
     2.6776   3.2879   3.2913   3.3131   3.5789   3.6756   3.8422   3.9752
     4.0869   4.6331   5.7340   6.1088   6.1406   6.5220   6.6849   6.7061
     7.1721   7.6234

          k = 0.7622 0.0645 0.1485 ( 36509 PWs)   bands (ev):

   -44.1737 -44.1737 -22.3169 -22.3169 -22.2753 -22.2753 -22.0873 -22.0873
    -6.8062  -6.7239  -6.3107  -6.2007  -5.8031  -5.3910  -5.1684  -5.0516
    -4.6737  -4.6566   0.0722   0.4755   0.5764   0.9917   1.1884   1.2037
     1.4497   1.6013   1.7577   2.0269   2.0572   2.6115   2.6535   2.7818
     2.8587   3.1942   3.3469   3.3706   3.3952   3.6977   3.7545   3.8682
     4.0920   4.9281   5.2550   6.1536   6.4632   6.4751   6.6526   6.8665
     6.9127   7.4072

          k = 0.7622 0.0645-0.2971 ( 36472 PWs)   bands (ev):

   -44.1737 -44.1737 -22.3169 -22.3169 -22.2753 -22.2753 -22.0873 -22.0873
    -6.7644  -6.7644  -6.2793  -6.2793  -5.5869  -5.5869  -5.1046  -5.1046
    -4.6588  -4.6588   0.3018   0.3018   0.7516   0.7516   1.0799   1.0799
     1.5660   1.5660   1.8795   1.8795   2.3562   2.3562   2.7874   2.7874
     2.9880   2.9880   3.5159   3.5159   3.5562   3.5562   3.7493   3.7493
     4.2922   4.2922   5.9361   5.9361   6.3213   6.3213   6.6802   6.6802
     7.2631   7.2631

          k = 1.0162 0.1290 0.0000 ( 36514 PWs)   bands (ev):

   -44.1733 -44.1733 -22.3147 -22.3147 -22.2857 -22.2857 -22.0860 -22.0860
    -6.6723  -6.6519  -5.7951  -5.7919  -5.5930  -5.5848  -5.5337  -5.5160
    -4.6290  -4.6166   0.1110   0.1513   0.4677   0.4970   1.0046   1.0223
     1.4766   1.6675   2.2080   2.2700   2.2910   2.3011   2.8236   2.8591
     2.8929   3.0122   3.2157   3.2886   3.3409   3.4585   3.5824   3.7219
     3.8545   3.9115   6.2715   6.3058   6.3688   6.4655   6.8928   6.9218
     6.9373   6.9425

          k = 1.0162 0.1290 0.1485 ( 36524 PWs)   bands (ev):

   -44.1733 -44.1733 -22.3147 -22.3147 -22.2857 -22.2857 -22.0860 -22.0860
    -6.6687  -6.6543  -5.7890  -5.7867  -5.6483  -5.6406  -5.4735  -5.4628
    -4.6357  -4.6271   0.0406   0.0543   0.6625   0.6714   1.0506   1.0715
     1.4585   1.5468   1.9190   1.9694   2.3235   2.3360   2.7424   2.8493
     2.9612   2.9802   3.2019   3.2648   3.4844   3.5829   3.6753   3.7172
     4.1691   4.1896   5.7921   5.8229   6.3128   6.3850   6.7529   6.7889
     7.1677   7.1782

          k = 1.0162 0.1290-0.2971 ( 36516 PWs)   bands (ev):

   -44.1733 -44.1733 -22.3147 -22.3147 -22.2857 -22.2857 -22.0860 -22.0860
    -6.6609  -6.6609  -5.7799  -5.7799  -5.6798  -5.6798  -5.4338  -5.4338
    -4.6402  -4.6402  -0.0057  -0.0057   0.8559   0.8559   1.1635   1.1635
     1.3851   1.3851   1.6763   1.6763   2.3266   2.3266   2.7877   2.7877
     2.9674   2.9674   3.2587   3.2587   3.5411   3.5411   3.7472   3.7472
     4.8046   4.8046   5.1012   5.1012   6.2902   6.2902   6.7739   6.7739
     7.2172   7.2172

          k =-0.7622-0.3224 0.0000 ( 36511 PWs)   bands (ev):

   -44.1737 -44.1737 -22.3169 -22.3169 -22.2753 -22.2753 -22.0873 -22.0873
    -6.7977  -6.7126  -6.3415  -6.1146  -5.9361  -5.2735  -5.2469  -5.0300
    -4.6920  -4.6480  -0.0004   0.3592   0.6298   1.1614   1.1815   1.1929
     1.4967   1.6513   1.9407   1.9414   2.3284   2.5297   2.5986   2.7003
     2.7618   3.1455   3.2139   3.3277   3.6108   3.6479   3.7290   3.8989
     4.0455   4.5148   5.7368   6.1077   6.2113   6.5675   6.6177   6.7973
     7.0980   7.6291

          k =-0.7622-0.3224 0.1485 ( 36492 PWs)   bands (ev):

   -44.1737 -44.1737 -22.3169 -22.3169 -22.2753 -22.2753 -22.0873 -22.0873
    -6.7833  -6.7223  -6.3337  -6.2089  -5.7950  -5.3894  -5.1812  -5.0541
    -4.6783  -4.6488   0.0835   0.4562   0.5517   0.9370   1.1443   1.2226
     1.5499   1.5821   1.7498   2.1841   2.2429   2.6277   2.6715   2.8405
     2.8654   3.1724   3.2235   3.3290   3.4659   3.6201   3.6803   3.8174
     3.9582   4.9294   5.1883   6.1842   6.4589   6.5207   6.6348   6.8762
     6.9353   7.3598

          k =-0.7622-0.3224-0.2971 ( 36508 PWs)   bands (ev):

   -44.1737 -44.1737 -22.3169 -22.3169 -22.2753 -22.2753 -22.0873 -22.0873
    -6.7505  -6.7505  -6.2971  -6.2971  -5.5808  -5.5808  -5.1128  -5.1128
    -4.6575  -4.6575   0.2989   0.2989   0.7571   0.7571   1.0224   1.0224
     1.5688   1.5688   2.0156   2.0156   2.4440   2.4440   2.8310   2.8310
     2.9814   2.9814   3.3601   3.3601   3.5511   3.5511   3.7347   3.7347
     4.2333   4.2333   5.8820   5.8820   6.3177   6.3177   6.7758   6.7758
     7.1939   7.1939

          k =-0.5081-0.2579 0.0000 ( 36480 PWs)   bands (ev):

   -44.1747 -44.1747 -22.3218 -22.3218 -22.2507 -22.2507 -22.0905 -22.0905
    -7.1740  -6.8929  -6.6144  -6.4906  -6.3353  -5.1620  -5.1466  -4.8136
    -4.7463  -4.4027   0.4484   0.7626   0.8591   1.2364   1.3807   1.5168
     1.6216   1.7277   1.9450   2.2157   2.2354   2.3135   2.6843   3.1657
     3.2685   3.2844   3.3790   3.4209   3.7398   3.8175   3.9904   4.0681
     4.8082   5.2667   5.4060   5.7329   5.8904   6.5986   6.6397   6.6938
     7.2404   7.5051

          k =-0.5081-0.2579 0.1485 ( 36485 PWs)   bands (ev):

   -44.1747 -44.1747 -22.3218 -22.3218 -22.2507 -22.2507 -22.0905 -22.0905
    -7.1421  -6.9444  -6.6179  -6.5765  -6.1365  -5.4703  -4.9640  -4.7812
    -4.7092  -4.4328   0.4852   0.7869   0.9681   1.0957   1.2667   1.4292
     1.4945   1.6778   2.0457   2.0737   2.3654   2.6668   2.9596   3.1936
     3.2589   3.2693   3.4232   3.4511   3.6073   3.8013   3.8348   4.1319
     4.4300   4.6460   5.9026   5.9808   6.2276   6.6124   6.6389   6.6512
     7.1092   7.4773

          k =-0.5081-0.2579-0.2971 ( 36478 PWs)   bands (ev):

   -44.1747 -44.1747 -22.3218 -22.3218 -22.2507 -22.2507 -22.0905 -22.0905
    -7.0539  -7.0539  -6.6156  -6.6156  -5.8165  -5.8165  -4.8630  -4.8630
    -4.5368  -4.5368   0.6332   0.6332   1.1043   1.1043   1.2784   1.2784
     1.4205   1.4205   2.0621   2.0621   2.8559   2.8559   3.1299   3.1299
     3.2851   3.2851   3.3674   3.3674   3.7117   3.7117   3.8991   3.8991
     4.2329   4.2329   6.1113   6.1113   6.5879   6.5879   6.7273   6.7273
     7.0896   7.0896

          k =-0.2541-0.1934 0.0000 ( 36410 PWs)   bands (ev):

   -44.1756 -44.1756 -22.3266 -22.3266 -22.2261 -22.2261 -22.0937 -22.0937
    -7.4961  -7.1212  -6.7400  -6.6696  -6.6098  -5.1903  -5.1623  -4.9198
    -4.8446  -3.9966   0.6214   0.8368   0.9790   1.1511   1.2290   1.5678
     1.9765   2.1665   2.2907   2.4563   2.5723   2.9878   3.3968   3.4636
     3.5432   3.6862   3.7323   3.8944   4.0472   4.0705   4.1400   4.2646
     4.3945   4.7679   5.6455   6.0362   6.3731   6.5408   6.6016   6.8322
     7.0145   7.0872

          k =-0.2541-0.1934 0.1485 ( 36427 PWs)   bands (ev):

   -44.1756 -44.1756 -22.3266 -22.3266 -22.2261 -22.2261 -22.0937 -22.0937
    -7.4598  -7.2097  -6.7493  -6.7335  -6.3817  -5.6016  -4.9741  -4.8655
    -4.6906  -4.0858   0.6287   0.8656   0.9950   1.0504   1.1506   1.6718
     1.8966   2.2324   2.4768   2.5679   2.6475   2.9133   3.2194   3.3217
     3.4365   3.5965   3.7855   3.8672   3.9532   4.0491   4.1496   4.2183
     4.7050   5.1191   5.7422   5.8116   6.1944   6.3140   6.5959   6.6693
     7.2414   7.2451

          k =-0.2541-0.1934-0.2971 ( 36422 PWs)   bands (ev):

   -44.1756 -44.1756 -22.3266 -22.3266 -22.2261 -22.2261 -22.0937 -22.0937
    -7.3559  -7.3559  -6.7502  -6.7502  -6.0192  -6.0192  -4.9161  -4.9161
    -4.3351  -4.3351   0.7348   0.7348   0.9731   0.9731   1.3743   1.3743
     2.2164   2.2164   2.5847   2.5847   2.8241   2.8241   3.1010   3.1010
     3.4415   3.4415   3.8030   3.8030   3.9613   3.9613   4.2015   4.2015
     5.2601   5.2601   5.7045   5.7045   6.0092   6.0092   6.5957   6.5957
     7.3941   7.3942

          k = 0.0000-0.1290 0.0000 ( 36417 PWs)   bands (ev):

   -44.1760 -44.1760 -22.3285 -22.3285 -22.2158 -22.2158 -22.0951 -22.0950
    -7.6161  -7.2230  -6.7765  -6.7144  -6.7073  -5.2128  -5.1854  -4.9576
    -4.8872  -3.8623   0.5281   0.6633   0.8360   1.0151   1.4770   1.6688
     2.3851   2.5226   2.5931   2.9925   3.0464   3.0739   3.3122   3.3748
     3.4285   3.4658   3.8328   4.0071   4.0270   4.2061   4.2568   4.6188
     5.3821   5.4955   5.4975   5.5233   5.9083   6.1544   6.5516   6.6869
     6.9305   7.3105

          k = 0.0000-0.1290 0.1485 ( 36419 PWs)   bands (ev):

   -44.1760 -44.1760 -22.3285 -22.3285 -22.2158 -22.2158 -22.0951 -22.0950
    -7.5789  -7.3194  -6.7892  -6.7765  -6.4670  -5.6586  -4.9916  -4.9042
    -4.6903  -3.9747   0.5494   0.7014   0.9085   1.0727   1.1001   2.1156
     2.1650   2.4038   2.5012   3.0465   3.0846   3.1923   3.2111   3.2741
     3.6233   3.6941   3.7621   3.9677   3.9788   4.2326   4.2721   4.6472
     5.0286   5.0623   5.6532   5.9237   6.1027   6.1380   6.5367   6.7783
     6.7992   7.4266

          k = 0.0000-0.1290-0.2971 ( 36464 PWs)   bands (ev):

   -44.1760 -44.1760 -22.3285 -22.3285 -22.2158 -22.2158 -22.0950 -22.0950
    -7.4720  -7.4720  -6.7890  -6.7890  -6.0957  -6.0957  -4.9454  -4.9454
    -4.2769  -4.2769   0.7127   0.7127   0.8190   0.8190   1.5435   1.5435
     2.4511   2.4511   2.7212   2.7212   3.1243   3.1243   3.2156   3.2156
     3.7840   3.7840   3.8336   3.8336   4.2224   4.2224   4.4539   4.4539
     4.7638   4.7638   5.9199   5.9199   6.3142   6.3142   6.3995   6.3995
     7.2258   7.2259

          k = 1.0162 0.0000 0.0000 ( 36499 PWs)   bands (ev):

   -44.1733 -44.1733 -22.3147 -22.3147 -22.2857 -22.2857 -22.0860 -22.0860
    -6.6723  -6.6519  -5.7944  -5.7926  -5.5936  -5.5843  -5.5337  -5.5159
    -4.6290  -4.6166   0.1067   0.1557   0.4633   0.5016   1.0024   1.0267
     1.4820   1.6582   2.2174   2.2477   2.2897   2.3031   2.8335   2.8460
     2.9375   2.9984   3.1980   3.2970   3.3502   3.4537   3.5714   3.7270
     3.8641   3.8975   6.2747   6.3046   6.3646   6.4701   6.8987   6.9251
     6.9357   6.9450

          k = 1.0162 0.0000 0.1485 ( 36485 PWs)   bands (ev):

   -44.1733 -44.1733 -22.3147 -22.3147 -22.2857 -22.2857 -22.0860 -22.0860
    -6.6687  -6.6543  -5.7884  -5.7872  -5.6487  -5.6402  -5.4736  -5.4627
    -4.6357  -4.6271   0.0390   0.0555   0.6610   0.6735   1.0583   1.0655
     1.4622   1.5463   1.9101   1.9713   2.3164   2.3310   2.7286   2.8651
     2.9754   3.0138   3.1684   3.2649   3.4872   3.6384   3.6589   3.6672
     4.1807   4.1829   5.7867   5.8302   6.3105   6.3872   6.7600   6.7883
     7.1723   7.1735

          k = 1.0162 0.0000-0.2971 ( 36514 PWs)   bands (ev):

   -44.1733 -44.1733 -22.3147 -22.3147 -22.2857 -22.2857 -22.0860 -22.0860
    -6.6609  -6.6609  -5.7799  -5.7799  -5.6798  -5.6798  -5.4338  -5.4338
    -4.6402  -4.6402  -0.0058  -0.0058   0.8552   0.8552   1.1679   1.1679
     1.3827   1.3827   1.6766   1.6766   2.3166   2.3166   2.7764   2.7764
     3.0098   3.0098   3.2375   3.2375   3.5492   3.5492   3.7366   3.7366
     4.8047   4.8047   5.1030   5.1030   6.2901   6.2901   6.7768   6.7768
     7.2168   7.2168

          k = 1.2703 0.0645 0.0000 ( 36468 PWs)   bands (ev):

   -44.1737 -44.1737 -22.3169 -22.3169 -22.2753 -22.2753 -22.0873 -22.0873
    -6.7842  -6.7169  -6.3515  -6.1164  -5.9323  -5.2732  -5.2535  -5.0301
    -4.6935  -4.6449   0.0071   0.3478   0.6054   1.1595   1.1736   1.1893
     1.4979   1.7057   1.9372   1.9787   2.3884   2.5619   2.6122   2.7207
     2.7831   3.0506   3.2102   3.4113   3.5317   3.5629   3.7740   3.8640
     4.0286   4.4565   5.7385   6.1187   6.2346   6.5106   6.6623   6.8510
     7.0598   7.5470

          k = 1.2703 0.0645 0.1485 ( 36490 PWs)   bands (ev):

   -44.1737 -44.1737 -22.3169 -22.3169 -22.2753 -22.2753 -22.0873 -22.0873
    -6.7716  -6.7234  -6.3434  -6.2126  -5.7916  -5.3888  -5.1865  -5.0552
    -4.6792  -4.6465   0.0879   0.4501   0.5393   0.9221   1.1319   1.2272
     1.5624   1.6211   1.7211   2.2608   2.3203   2.6347   2.6957   2.8516
     2.8703   3.0791   3.2755   3.3329   3.4358   3.5841   3.6961   3.7696
     3.8863   4.9289   5.1626   6.2017   6.4274   6.5401   6.6503   6.8955
     6.9424   7.3355

          k = 1.2703 0.0645-0.2971 ( 36480 PWs)   bands (ev):

   -44.1737 -44.1737 -22.3169 -22.3169 -22.2753 -22.2753 -22.0873 -22.0873
    -6.7444  -6.7444  -6.3048  -6.3048  -5.5782  -5.5782  -5.1163  -5.1163
    -4.6570  -4.6570   0.2971   0.2971   0.7593   0.7593   1.0052   1.0052
     1.5694   1.5694   2.0599   2.0599   2.4921   2.4921   2.8782   2.8782
     2.9619   2.9619   3.2816   3.2816   3.5686   3.5686   3.7048   3.7048
     4.2093   4.2093   5.8610   5.8610   6.3150   6.3150   6.8299   6.8299
     7.1544   7.1544

          k =-0.5081-0.3869 0.0000 ( 36463 PWs)   bands (ev):

   -44.1747 -44.1747 -22.3218 -22.3218 -22.2507 -22.2507 -22.0905 -22.0905
    -7.1546  -6.8845  -6.6333  -6.5085  -6.3311  -5.1724  -5.1440  -4.8157
    -4.7413  -4.4036   0.4582   0.7510   0.8438   1.3749   1.3873   1.5637
     1.6073   1.7359   1.9222   2.2432   2.2675   2.3443   2.6784   3.1547
     3.2284   3.2810   3.2910   3.4156   3.7065   3.7318   3.9733   4.0486
     4.7985   5.2572   5.3375   5.7026   5.9424   6.6089   6.7071   6.7522
     7.1518   7.4974

          k =-0.5081-0.3869 0.1485 ( 36477 PWs)   bands (ev):

   -44.1747 -44.1747 -22.3218 -22.3218 -22.2507 -22.2507 -22.0905 -22.0905
    -7.1228  -6.9302  -6.6383  -6.5986  -6.1329  -5.4677  -4.9791  -4.7814
    -4.7039  -4.4312   0.4948   0.7866   0.9549   1.0907   1.3911   1.4320
     1.5465   1.6587   2.0572   2.0921   2.3726   2.7186   2.9713   3.1311
     3.2399   3.2774   3.3237   3.4517   3.6097   3.7372   3.8180   4.0933
     4.3643   4.6360   5.8551   5.9800   6.2262   6.5493   6.7410   6.7631
     7.0294   7.4880

          k =-0.5081-0.3869-0.2971 ( 36492 PWs)   bands (ev):

   -44.1747 -44.1747 -22.3218 -22.3218 -22.2507 -22.2507 -22.0905 -22.0905
    -7.0353  -7.0353  -6.6391  -6.6391  -5.8123  -5.8123  -4.8732  -4.8732
    -4.5314  -4.5314   0.6442   0.6442   1.0977   1.0977   1.2803   1.2803
     1.4967   1.4967   2.0651   2.0651   2.8779   2.8779   3.2002   3.2002
     3.2214   3.2214   3.3169   3.3169   3.6695   3.6695   3.8941   3.8941
     4.1611   4.1611   6.0727   6.0727   6.6145   6.6145   6.7467   6.7467
     7.0929   7.0929

          k =-0.2541-0.3224 0.0000 ( 36485 PWs)   bands (ev):

   -44.1756 -44.1756 -22.3266 -22.3266 -22.2261 -22.2261 -22.0937 -22.0937
    -7.4772  -7.1012  -6.7636  -6.6997  -6.6056  -5.2016  -5.1591  -4.9244
    -4.8378  -3.9981   0.6492   0.9684   0.9943   1.1998   1.3021   1.5678
     2.0068   2.1713   2.3208   2.3679   2.5060   3.1120   3.2196   3.2769
     3.4892   3.7101   3.7534   3.8935   4.0104   4.0474   4.0738   4.2259
     4.3828   4.6968   5.7171   6.0462   6.3916   6.4739   6.6826   6.8716
     6.9836   7.0201

          k =-0.2541-0.3224 0.1485 ( 36445 PWs)   bands (ev):

   -44.1756 -44.1756 -22.3266 -22.3266 -22.2261 -22.2261 -22.0937 -22.0937
    -7.4407  -7.1892  -6.7765  -6.7582  -6.3802  -5.5983  -4.9951  -4.8638
    -4.6821  -4.0853   0.6478   0.9302   1.0948   1.1211   1.1917   1.6960
     1.8999   2.2289   2.3908   2.5171   2.6802   2.9404   3.1990   3.2622
     3.3119   3.4912   3.8215   3.8705   3.9478   4.0179   4.0748   4.1440
     4.6923   5.0776   5.7579   5.7994   6.1750   6.2799   6.6994   6.7237
     7.1849   7.2364

          k =-0.2541-0.3224-0.2971 ( 36442 PWs)   bands (ev):

   -44.1756 -44.1756 -22.3266 -22.3266 -22.2261 -22.2261 -22.0937 -22.0937
    -7.3362  -7.3362  -6.7770  -6.7770  -6.0154  -6.0154  -4.9260  -4.9260
    -4.3306  -4.3306   0.7432   0.7432   1.1105   1.1105   1.3892   1.3892
     2.2082   2.2082   2.5059   2.5059   2.8487   2.8487   3.1524   3.1524
     3.2698   3.2698   3.8023   3.8023   3.9668   3.9668   4.1194   4.1194
     5.2369   5.2369   5.6729   5.6729   5.9757   5.9757   6.7011   6.7011
     7.3679   7.3681

          k = 0.0000-0.2579 0.0000 ( 36445 PWs)   bands (ev):

   -44.1760 -44.1760 -22.3285 -22.3285 -22.2158 -22.2158 -22.0951 -22.0950
    -7.5994  -7.2034  -6.8008  -6.7416  -6.7036  -5.2227  -5.1825  -4.9647
    -4.8790  -3.8639   0.5823   0.7835   0.8516   1.0487   1.5298   1.6913
     2.3958   2.5400   2.5728   3.0331   3.0571   3.1398   3.1445   3.2321
     3.3056   3.4406   3.8080   4.0068   4.0180   4.0622   4.1365   4.6249
     5.3679   5.4190   5.5143   5.5898   5.9342   6.2068   6.5957   6.6500
     6.9335   7.2645

          k = 0.0000-0.2579 0.1485 ( 36452 PWs)   bands (ev):

   -44.1760 -44.1760 -22.3285 -22.3285 -22.2158 -22.2158 -22.0951 -22.0950
    -7.5621  -7.3006  -6.8161  -6.7965  -6.4672  -5.6556  -5.0127  -4.9012
    -4.6824  -3.9745   0.5885   0.8134   0.9786   1.1038   1.1158   2.1390
     2.1959   2.4153   2.5175   3.0233   3.0681   3.0745   3.1338   3.1971
     3.6069   3.6708   3.7133   3.9402   3.9645   4.1158   4.1671   4.6533
     5.0296   5.0361   5.6734   5.9269   6.1091   6.1285   6.5104   6.7810
     6.8910   7.2569

          k = 0.0000-0.2579-0.2971 ( 36454 PWs)   bands (ev):

   -44.1760 -44.1760 -22.3285 -22.3285 -22.2158 -22.2158 -22.0950 -22.0950
    -7.4546  -7.4546  -6.8134  -6.8134  -6.0927  -6.0927  -4.9544  -4.9544
    -4.2729  -4.2729   0.7517   0.7517   0.9045   0.9045   1.5696   1.5696
     2.4648   2.4648   2.7335   2.7335   3.0612   3.0612   3.1085   3.1085
     3.7735   3.7735   3.8237   3.8237   4.0878   4.0878   4.4479   4.4479
     4.7687   4.7687   5.8767   5.8767   6.3434   6.3434   6.4020   6.4020
     7.2236   7.2237

          k = 1.5243 0.0000 0.0000 ( 36439 PWs)   bands (ev):

   -44.1747 -44.1747 -22.3218 -22.3218 -22.2507 -22.2507 -22.0905 -22.0905
    -7.1459  -6.8817  -6.6404  -6.5168  -6.3294  -5.1768  -5.1430  -4.8161
    -4.7398  -4.4040   0.4630   0.7441   0.8378   1.3896   1.4836   1.5328
     1.6035   1.7539   1.9065   2.2580   2.2690   2.3528   2.6860   3.0960
     3.2317   3.2512   3.2907   3.4760   3.6335   3.6945   3.9693   4.0607
     4.7941   5.2539   5.3024   5.6942   5.9661   6.5729   6.7712   6.7865
     7.1074   7.4960

          k = 1.5243 0.0000 0.1485 ( 36476 PWs)   bands (ev):

   -44.1747 -44.1747 -22.3218 -22.3218 -22.2507 -22.2507 -22.0905 -22.0905
    -7.1141  -6.9242  -6.6457  -6.6095  -6.1314  -5.4667  -4.9850  -4.7818
    -4.7016  -4.4305   0.4991   0.7845   0.9500   1.0887   1.4310   1.4986
     1.5180   1.6549   2.0626   2.1040   2.3700   2.7343   2.9791   3.0736
     3.2378   3.2837   3.2893   3.5258   3.5575   3.6966   3.8094   4.0981
     4.3265   4.6323   5.8329   5.9827   6.2258   6.5231   6.7892   6.8175
     6.9827   7.5007

          k = 1.5243 0.0000-0.2971 ( 36508 PWs)   bands (ev):

   -44.1747 -44.1747 -22.3218 -22.3218 -22.2507 -22.2507 -22.0905 -22.0905
    -7.0270  -7.0270  -6.6495  -6.6495  -5.8106  -5.8106  -4.8773  -4.8773
    -4.5292  -4.5292   0.6486   0.6486   1.0945   1.0945   1.2794   1.2794
     1.5358   1.5358   2.0653   2.0653   2.8838   2.8838   3.1386   3.1386
     3.2607   3.2607   3.3361   3.3361   3.6365   3.6365   3.8933   3.8933
     4.1306   4.1306   6.0569   6.0569   6.6106   6.6106   6.7677   6.7677
     7.0970   7.0970

          k =-0.2541-0.4514 0.0000 ( 36444 PWs)   bands (ev):

   -44.1756 -44.1756 -22.3266 -22.3266 -22.2261 -22.2261 -22.0937 -22.0937
    -7.4628  -7.0863  -6.7758  -6.7271  -6.6026  -5.2098  -5.1568  -4.9257
    -4.8348  -3.9991   0.6558   1.0057   1.0733   1.2517   1.3936   1.5660
     2.0449   2.1589   2.2674   2.3459   2.4174   3.0994   3.1616   3.2265
     3.4823   3.6991   3.7418   3.8778   3.9488   4.0459   4.0494   4.2001
     4.4267   4.6196   5.7763   6.0513   6.4003   6.4212   6.7278   6.9035
     6.9227   7.0139

          k =-0.2541-0.4514 0.1485 ( 36461 PWs)   bands (ev):

   -44.1756 -44.1756 -22.3266 -22.3266 -22.2261 -22.2261 -22.0937 -22.0937
    -7.4262  -7.1734  -6.7929  -6.7808  -6.3790  -5.5960  -5.0084  -4.8637
    -4.6765  -4.0850   0.6505   0.9523   1.1344   1.2341   1.2785   1.7151
     1.9111   2.2050   2.2871   2.4534   2.7042   2.9381   3.1465   3.1624
     3.3471   3.4765   3.8184   3.8509   3.9480   3.9848   4.0505   4.0901
     4.6968   5.0432   5.7741   5.7914   6.1785   6.2264   6.7523   6.7724
     7.1475   7.2332

          k =-0.2541-0.4514-0.2971 ( 36490 PWs)   bands (ev):

   -44.1756 -44.1756 -22.3266 -22.3266 -22.2261 -22.2261 -22.0937 -22.0937
    -7.3211  -7.3211  -6.7971  -6.7971  -6.0126  -6.0126  -4.9330  -4.9330
    -4.3274  -4.3274   0.7426   0.7426   1.2394   1.2394   1.4061   1.4061
     2.1837   2.1837   2.4265   2.4265   2.8635   2.8635   3.1343   3.1343
     3.2267   3.2267   3.7877   3.7877   3.9798   3.9798   4.0638   4.0638
     5.2228   5.2228   5.6567   5.6567   5.9467   5.9467   6.7648   6.7648
     7.3465   7.3465

          k = 0.0000-0.3869 0.0000 ( 36477 PWs)   bands (ev):

   -44.1760 -44.1760 -22.3285 -22.3285 -22.2158 -22.2158 -22.0951 -22.0950
    -7.5816  -7.1823  -6.8206  -6.7759  -6.6998  -5.2332  -5.1796  -4.9680
    -4.8740  -3.8656   0.6055   0.8678   0.9473   1.1185   1.5951   1.7121
     2.4069   2.5189   2.5586   2.8477   3.0373   3.0394   3.0943   3.2778
     3.2990   3.4148   3.8455   3.8798   4.0034   4.0036   4.0064   4.6312
     5.3541   5.3757   5.5312   5.6665   5.9615   6.2349   6.4908   6.7233
     6.9362   7.2900

          k = 0.0000-0.3869 0.1485 ( 36452 PWs)   bands (ev):

   -44.1760 -44.1760 -22.3285 -22.3285 -22.2158 -22.2158 -22.0951 -22.0950
    -7.5440  -7.2803  -6.8414  -6.8212  -6.4670  -5.6526  -5.0311  -4.9004
    -4.6750  -3.9743   0.5981   0.9384   1.0881   1.1118   1.1949   2.1695
     2.2096   2.4272   2.5348   2.7975   2.8329   3.0507   3.1825   3.2367
     3.5907   3.6441   3.7107   3.9144   3.9612   4.0035   4.0668   4.6597
     5.0223   5.0304   5.7030   5.9308   6.0799   6.1323   6.4811   6.7835
     6.9587   7.2102

          k = 0.0000-0.3869-0.2971 ( 36454 PWs)   bands (ev):

   -44.1760 -44.1760 -22.3285 -22.3285 -22.2158 -22.2158 -22.0950 -22.0950
    -7.4357  -7.4357  -6.8392  -6.8392  -6.0895  -6.0895  -4.9635  -4.9635
    -4.2690  -4.2690   0.7467   0.7467   1.0659   1.0659   1.5986   1.5986
     2.4792   2.4792   2.6473   2.6473   2.9515   2.9515   3.0919   3.0919
     3.7721   3.7721   3.8138   3.8138   3.9916   3.9916   4.4367   4.4367
     4.7738   4.7738   5.8351   5.8351   6.3584   6.3584   6.4048   6.4048
     7.1971   7.1972

          k =-2.0325 0.0000 0.0000 ( 36452 PWs)   bands (ev):

   -44.1760 -44.1760 -22.3285 -22.3285 -22.2158 -22.2158 -22.0951 -22.0950
    -7.5738  -7.1731  -6.8248  -6.7950  -6.6982  -5.2376  -5.1785  -4.9685
    -4.8727  -3.8662   0.6075   0.8746   1.0483   1.1376   1.6372   1.7203
     2.4116   2.4776   2.5667   2.7026   2.9686   3.0317   3.1275   3.2964
     3.3635   3.4039   3.7737   3.8816   3.9418   3.9843   4.0061   4.6339
     5.3485   5.3634   5.5382   5.7032   5.9735   6.2427   6.4415   6.7484
     6.9372   7.2531

          k =-2.0325 0.0000 0.1485 ( 36456 PWs)   bands (ev):

   -44.1760 -44.1760 -22.3285 -22.3285 -22.2158 -22.2158 -22.0951 -22.0950
    -7.5361  -7.2712  -6.8512  -6.8332  -6.4668  -5.6513  -5.0383  -4.9004
    -4.6720  -3.9742   0.5965   0.9869   1.1096   1.1484   1.2576   2.1816
     2.2092   2.4324   2.5423   2.6574   2.7468   3.0432   3.1762   3.3034
     3.5841   3.6206   3.7160   3.8820   3.9597   3.9668   4.0364   4.6624
     5.0192   5.0307   5.7189   5.9325   6.0574   6.1368   6.4691   6.7846
     6.9817   7.1923

          k =-2.0325 0.0000-0.2971 ( 36460 PWs)   bands (ev):

   -44.1760 -44.1760 -22.3285 -22.3285 -22.2158 -22.2158 -22.0950 -22.0950
    -7.4275  -7.4275  -6.8504  -6.8504  -6.0882  -6.0882  -4.9672  -4.9672
    -4.2674  -4.2674   0.7422   0.7422   1.1505   1.1505   1.6128   1.6128
     2.4854   2.4854   2.5523   2.5523   2.9487   2.9487   3.0848   3.0848
     3.7606   3.7606   3.8097   3.8097   3.9670   3.9670   4.4326   4.4326
     4.7759   4.7759   5.8171   5.8171   6.3624   6.3624   6.4060   6.4060
     7.1832   7.1832

     the Fermi energy is     5.2522 ev

!    total energy              =   -4240.92158834 Ry

     total all-electron energy =   -150287.615283 Ry
     estimated scf accuracy    <          9.3E-11 Ry
     smearing contrib. (-TS)   =      -0.00008356 Ry
     internal energy E=F+TS    =   -4240.92150479 Ry

     The total energy is F=E-TS. E is the sum of the following terms:
     one-electron contribution =    -163.84106147 Ry
     hartree contribution      =     115.36785531 Ry
     xc contribution           =    -201.39088254 Ry
     ewald contribution        =    -223.54971823 Ry
     one-center paw contrib.   =   -3767.50769786 Ry

     convergence has been achieved in  20 iterations

     Forces acting on atoms (cartesian axes, Ry/au):

     atom    1 type  1   force =     0.00000000   -0.03101032    0.00000000
     atom    2 type  1   force =     0.00000000    0.03101032    0.00000000
     atom    3 type  2   force =     0.00000000    0.00215657    0.00000000
     atom    4 type  2   force =     0.00000000   -0.00215657    0.00000000
     atom    5 type  2   force =     0.00000000    0.00685262   -0.00148394
     atom    6 type  2   force =     0.00000000   -0.00685262    0.00148394
     atom    7 type  2   force =     0.00000000    0.00685262    0.00148394
     atom    8 type  2   force =     0.00000000   -0.00685262   -0.00148394
     atom    9 type  2   force =     0.00000000    0.01959410    0.01032738
     atom   10 type  2   force =     0.00000000   -0.01959410   -0.01032738
     atom   11 type  2   force =     0.00000000    0.01959410   -0.01032738
     atom   12 type  2   force =     0.00000000   -0.01959410    0.01032738

     Total force =     0.063965     Total SCF correction =     0.000014


     Computing stress (Cartesian axis) and pressure

          total   stress  (Ry/bohr**3)                   (kbar)     P=       -5.14
  -0.00002163   0.00000000   0.00000000           -3.18        0.00        0.00
   0.00000000  -0.00003289   0.00000000            0.00       -4.84        0.00
   0.00000000   0.00000000  -0.00005035            0.00        0.00       -7.41

 
     init_run     :     31.48s CPU     32.04s WALL (       1 calls)
     electrons    :   1450.54s CPU   1465.98s WALL (       1 calls)
     forces       :      6.75s CPU      7.00s WALL (       1 calls)
     stress       :     43.09s CPU     43.75s WALL (       1 calls)

     Called by init_run:
     wfcinit      :     26.82s CPU     27.08s WALL (       1 calls)
     potinit      :      1.51s CPU      1.57s WALL (       1 calls)
     hinit0       :      1.61s CPU      1.63s WALL (       1 calls)

     Called by electrons:
     c_bands      :   1191.34s CPU   1197.56s WALL (      21 calls)
     sum_band     :    227.34s CPU    232.33s WALL (      21 calls)
     v_of_rho     :      7.98s CPU      8.59s WALL (      21 calls)
     newd         :     16.50s CPU     20.30s WALL (      21 calls)
     PAW_pot      :      6.84s CPU      6.85s WALL (      21 calls)
     mix_rho      :      1.33s CPU      1.35s WALL (      21 calls)

     Called by c_bands:
     init_us_2    :     12.94s CPU     12.98s WALL (    2835 calls)
     cegterg      :   1103.61s CPU   1109.57s WALL (    1323 calls)

     Called by *egterg:
     cdiaghg      :     29.03s CPU     29.16s WALL (    8742 calls)
     h_psi        :    933.95s CPU    939.67s WALL (    8868 calls)
     s_psi        :     48.31s CPU     48.40s WALL (    8868 calls)
     g_psi        :      2.11s CPU      2.12s WALL (    7482 calls)

     Called by h_psi:
     h_psi:calbec :     42.40s CPU     42.51s WALL (    8868 calls)
     vloc_psi     :    840.14s CPU    845.55s WALL (    8868 calls)
     add_vuspsi   :     47.94s CPU     48.06s WALL (    8868 calls)

     General routines
     calbec       :     55.91s CPU     56.05s WALL (   10506 calls)
     fft          :      6.45s CPU      6.67s WALL (     297 calls)
     ffts         :      0.17s CPU      0.17s WALL (      42 calls)
     fftw         :    831.54s CPU    836.80s WALL (  471152 calls)
     interpolate  :      0.57s CPU      0.57s WALL (      21 calls)
 
     Parallel routines
     fft_scatt_xy :    222.94s CPU    224.40s WALL (  471491 calls)
     fft_scatt_yz :    154.03s CPU    155.44s WALL (  471491 calls)
 
     PWSCF        :  25m32.11s CPU  25m49.09s WALL

 
   This run was terminated on:  15:38:33  19Nov2021            

=------------------------------------------------------------------------------=
   JOB DONE.
=------------------------------------------------------------------------------=
