
     Program PWSCF v.6.7MaX starts on 19Nov2021 at 14:46:27 

     This program is part of the open-source Quantum ESPRESSO suite
     for quantum simulation of materials; please cite
         "P. Giannozzi et al., J. Phys.:Condens. Matter 21 395502 (2009);
         "P. Giannozzi et al., J. Phys.:Condens. Matter 29 465901 (2017);
          URL http://www.quantum-espresso.org", 
     in publications or presentations arising from this work. More details at
     http://www.quantum-espresso.org/quote

     Parallel version (MPI), running on    10 processors

     MPI processes distributed on     1 nodes
     R & G space division:  proc/nbgrp/npool/nimage =      10
     Waiting for input...
     Reading input from standard input

     Current dimensions of program PWSCF are:
     Max number of different atomic species (ntypx) = 10
     Max number of k-points (npk) =  40000
     Max angular momentum in pseudopotentials (lmaxx) =  3
     file Zr.pbe-spn-kjpaw_psl.1.0.0.UPF: wavefunction(s)  4S 4P renormalized
     file Te.pbe-n-kjpaw_psl.1.0.0.UPF: wavefunction(s)  5S 5P renormalized

     Subspace diagonalization in iterative solution of the eigenvalue problem:
     a serial algorithm will be used

     Message from routine setup:
     using ibrav=0 with symmetry is DISCOURAGED, use correct ibrav instead
 
     Parallelization info
     --------------------
     sticks:   dense  smooth     PW     G-vecs:    dense   smooth      PW
     Min         734     293     87               115340    29174    4753
     Max         735     295     88               115345    29176    4760
     Sum        7345    2937    873              1153415   291749   47557
 


     bravais-lattice index     =            0
     lattice parameter (alat)  =      15.5510  a.u.
     unit-cell volume          =    3018.5011 (a.u.)^3
     number of atoms/cell      =           12
     number of atomic types    =            2
     number of electrons       =        84.00
     number of Kohn-Sham states=           50
     kinetic-energy cutoff     =      80.0000  Ry
     charge density cutoff     =     800.0000  Ry
     scf convergence threshold =      1.0E-10
     mixing beta               =       0.7000
     number of iterations used =            8  plain     mixing
     Exchange-correlation= SLA  PW   PBX  PBC
                           (   1   4   3   4   0   0   0)

     celldm(1)=  15.551040  celldm(2)=   0.000000  celldm(3)=   0.000000
     celldm(4)=   0.000000  celldm(5)=   0.000000  celldm(6)=   0.000000

     crystal axes: (cart. coord. in units of alat)
               a(1) = (   0.246007  -0.969268   0.000000 )  
               a(2) = (   0.246007   0.969268   0.000000 )  
               a(3) = (   0.000000   0.000000   1.683031 )  

     reciprocal axes: (cart. coord. in units 2 pi/alat)
               b(1) = (  2.032465 -0.515853  0.000000 )  
               b(2) = (  2.032465  0.515853  0.000000 )  
               b(3) = (  0.000000  0.000000  0.594166 )  


     PseudoPot. # 1 for Zr read from file:
     pseudo/Zr.pbe-spn-kjpaw_psl.1.0.0.UPF
     MD5 check sum: 02112c41713a0468aff2bb39ef194e36
     Pseudo is Projector augmented-wave + core cor, Zval = 12.0
     Generated using &quot;atomic&quot; code by A. Dal Corso  v.6.2.2
     Shape of augmentation charge: PSQ
     Using radial grid of 1225 points,  6 beta functions with: 
                l(1) =   0
                l(2) =   0
                l(3) =   1
                l(4) =   1
                l(5) =   2
                l(6) =   2
     Q(r) pseudized with 0 coefficients 


     PseudoPot. # 2 for Te read from file:
     pseudo/Te.pbe-n-kjpaw_psl.1.0.0.UPF
     MD5 check sum: 66247bff2bd9dbf220fbb0bf5ab56e9d
     Pseudo is Projector augmented-wave + core cor, Zval =  6.0
     Generated using &quot;atomic&quot; code by A. Dal Corso  v.6.3
     Shape of augmentation charge: PSQ
     Using radial grid of 1245 points,  6 beta functions with: 
                l(1) =   0
                l(2) =   0
                l(3) =   1
                l(4) =   1
                l(5) =   2
                l(6) =   2
     Q(r) pseudized with 0 coefficients 


     atomic species   valence    mass     pseudopotential
        Zr            12.00    91.22000     Zr( 1.00)
        Te             6.00   127.60000     Te( 1.00)

      8 Sym. Ops., with inversion, found ( 4 have fractional translation)



   Cartesian axes

     site n.     atom                  positions (alat units)
         1           Zr  tau(   1) = (   0.0000000   0.6087735   0.4207578  )
         2           Zr  tau(   2) = (   0.2460067   0.3604946   1.2622733  )
         3           Te  tau(   3) = (   0.2460067   0.3343120   0.4207578  )
         4           Te  tau(   4) = (   0.0000000   0.6349561   1.2622733  )
         5           Te  tau(   5) = (   0.2460067   0.8083846   0.2510796  )
         6           Te  tau(   6) = (   0.0000000   0.1608835   1.4319514  )
         7           Te  tau(   7) = (   0.2460067   0.8083846   0.5904359  )
         8           Te  tau(   8) = (   0.0000000   0.1608835   1.0925952  )
         9           Te  tau(   9) = (   0.0000000   0.4093455   0.7255908  )
        10           Te  tau(  10) = (   0.2460067   0.5599226   0.9574403  )
        11           Te  tau(  11) = (   0.0000000   0.4093455   0.1159247  )
        12           Te  tau(  12) = (   0.2460067   0.5599226   1.5671063  )

     number of k points=    63  Methfessel-Paxton smearing, width (Ry)=  0.0030
                       cart. coord. in units 2pi/alat
        k(    1) = (   0.0000000   0.0000000   0.0000000), wk =   0.0078125
        k(    2) = (   0.0000000   0.0000000   0.1485415), wk =   0.0156250
        k(    3) = (   0.0000000   0.0000000  -0.2970830), wk =   0.0078125
        k(    4) = (   0.2540581   0.0644816   0.0000000), wk =   0.0312500
        k(    5) = (   0.2540581   0.0644816   0.1485415), wk =   0.0625000
        k(    6) = (   0.2540581   0.0644816  -0.2970830), wk =   0.0312500
        k(    7) = (   0.5081162   0.1289633   0.0000000), wk =   0.0312500
        k(    8) = (   0.5081162   0.1289633   0.1485415), wk =   0.0625000
        k(    9) = (   0.5081162   0.1289633  -0.2970830), wk =   0.0312500
        k(   10) = (   0.7621743   0.1934449   0.0000000), wk =   0.0312500
        k(   11) = (   0.7621743   0.1934449   0.1485415), wk =   0.0625000
        k(   12) = (   0.7621743   0.1934449  -0.2970830), wk =   0.0312500
        k(   13) = (  -1.0162324  -0.2579266   0.0000000), wk =   0.0156250
        k(   14) = (  -1.0162324  -0.2579266   0.1485415), wk =   0.0312500
        k(   15) = (  -1.0162324  -0.2579266  -0.2970830), wk =   0.0156250
        k(   16) = (   0.5081162   0.0000000   0.0000000), wk =   0.0156250
        k(   17) = (   0.5081162   0.0000000   0.1485415), wk =   0.0312500
        k(   18) = (   0.5081162   0.0000000  -0.2970830), wk =   0.0156250
        k(   19) = (   0.7621743   0.0644816   0.0000000), wk =   0.0312500
        k(   20) = (   0.7621743   0.0644816   0.1485415), wk =   0.0625000
        k(   21) = (   0.7621743   0.0644816  -0.2970830), wk =   0.0312500
        k(   22) = (   1.0162324   0.1289633   0.0000000), wk =   0.0312500
        k(   23) = (   1.0162324   0.1289633   0.1485415), wk =   0.0625000
        k(   24) = (   1.0162324   0.1289633  -0.2970830), wk =   0.0312500
        k(   25) = (  -0.7621743  -0.3224082   0.0000000), wk =   0.0312500
        k(   26) = (  -0.7621743  -0.3224082   0.1485415), wk =   0.0625000
        k(   27) = (  -0.7621743  -0.3224082  -0.2970830), wk =   0.0312500
        k(   28) = (  -0.5081162  -0.2579266   0.0000000), wk =   0.0312500
        k(   29) = (  -0.5081162  -0.2579266   0.1485415), wk =   0.0625000
        k(   30) = (  -0.5081162  -0.2579266  -0.2970830), wk =   0.0312500
        k(   31) = (  -0.2540581  -0.1934449   0.0000000), wk =   0.0312500
        k(   32) = (  -0.2540581  -0.1934449   0.1485415), wk =   0.0625000
        k(   33) = (  -0.2540581  -0.1934449  -0.2970830), wk =   0.0312500
        k(   34) = (   0.0000000  -0.1289633   0.0000000), wk =   0.0156250
        k(   35) = (   0.0000000  -0.1289633   0.1485415), wk =   0.0312500
        k(   36) = (   0.0000000  -0.1289633  -0.2970830), wk =   0.0156250
        k(   37) = (   1.0162324   0.0000000   0.0000000), wk =   0.0156250
        k(   38) = (   1.0162324   0.0000000   0.1485415), wk =   0.0312500
        k(   39) = (   1.0162324   0.0000000  -0.2970830), wk =   0.0156250
        k(   40) = (   1.2702905   0.0644816   0.0000000), wk =   0.0312500
        k(   41) = (   1.2702905   0.0644816   0.1485415), wk =   0.0625000
        k(   42) = (   1.2702905   0.0644816  -0.2970830), wk =   0.0312500
        k(   43) = (  -0.5081162  -0.3868899   0.0000000), wk =   0.0312500
        k(   44) = (  -0.5081162  -0.3868899   0.1485415), wk =   0.0625000
        k(   45) = (  -0.5081162  -0.3868899  -0.2970830), wk =   0.0312500
        k(   46) = (  -0.2540581  -0.3224082   0.0000000), wk =   0.0312500
        k(   47) = (  -0.2540581  -0.3224082   0.1485415), wk =   0.0625000
        k(   48) = (  -0.2540581  -0.3224082  -0.2970830), wk =   0.0312500
        k(   49) = (   0.0000000  -0.2579266   0.0000000), wk =   0.0156250
        k(   50) = (   0.0000000  -0.2579266   0.1485415), wk =   0.0312500
        k(   51) = (   0.0000000  -0.2579266  -0.2970830), wk =   0.0156250
        k(   52) = (   1.5243485   0.0000000   0.0000000), wk =   0.0156250
        k(   53) = (   1.5243485   0.0000000   0.1485415), wk =   0.0312500
        k(   54) = (   1.5243485   0.0000000  -0.2970830), wk =   0.0156250
        k(   55) = (  -0.2540581  -0.4513715   0.0000000), wk =   0.0312500
        k(   56) = (  -0.2540581  -0.4513715   0.1485415), wk =   0.0625000
        k(   57) = (  -0.2540581  -0.4513715  -0.2970830), wk =   0.0312500
        k(   58) = (   0.0000000  -0.3868899   0.0000000), wk =   0.0156250
        k(   59) = (   0.0000000  -0.3868899   0.1485415), wk =   0.0312500
        k(   60) = (   0.0000000  -0.3868899  -0.2970830), wk =   0.0156250
        k(   61) = (  -2.0324647   0.0000000   0.0000000), wk =   0.0078125
        k(   62) = (  -2.0324647   0.0000000   0.1485415), wk =   0.0156250
        k(   63) = (  -2.0324647   0.0000000  -0.2970830), wk =   0.0078125

     Dense  grid:  1153415 G-vectors     FFT dimensions: ( 144, 144, 240)

     Smooth grid:   291749 G-vectors     FFT dimensions: (  90,  90, 150)

     Estimated max dynamical RAM per process >     657.19 MB

     Estimated total dynamical RAM >       6.42 GB

     Initial potential from superposition of free atoms

     starting charge   83.99353, renormalised to   84.00000
     Starting wfcs are   66 randomized atomic wfcs
     Checking if some PAW data can be deallocated... 

     total cpu time spent up to now is       39.8 secs

     Self-consistent Calculation

     iteration #  1     ecut=    80.00 Ry     beta= 0.70
     Davidson diagonalization with overlap
     ethr =  1.00E-02,  avg # of iterations =  2.0

     Threshold (ethr) on eigenvalues was too large:
     Diagonalizing with lowered threshold

     Davidson diagonalization with overlap
     ethr =  3.93E-04,  avg # of iterations =  4.0

     total cpu time spent up to now is      197.4 secs

     total energy              =   -4240.72709677 Ry
     estimated scf accuracy    <       0.42954461 Ry

     iteration #  2     ecut=    80.00 Ry     beta= 0.70
     Davidson diagonalization with overlap
     ethr =  5.11E-04,  avg # of iterations =  7.6

     total cpu time spent up to now is      307.2 secs

     total energy              =   -4240.63140588 Ry
     estimated scf accuracy    <       2.13126467 Ry

     iteration #  3     ecut=    80.00 Ry     beta= 0.70
     Davidson diagonalization with overlap
     ethr =  5.11E-04,  avg # of iterations =  5.2

     total cpu time spent up to now is      400.5 secs

     total energy              =   -4240.92888078 Ry
     estimated scf accuracy    <       0.01518649 Ry

     iteration #  4     ecut=    80.00 Ry     beta= 0.70
     Davidson diagonalization with overlap
     c_bands:  1 eigenvalues not converged
     c_bands:  1 eigenvalues not converged
     c_bands:  1 eigenvalues not converged
     c_bands:  1 eigenvalues not converged
     c_bands:  1 eigenvalues not converged
     c_bands:  1 eigenvalues not converged
     c_bands:  1 eigenvalues not converged
     c_bands:  2 eigenvalues not converged
     c_bands:  1 eigenvalues not converged
     c_bands:  1 eigenvalues not converged
     c_bands:  1 eigenvalues not converged
     c_bands:  1 eigenvalues not converged
     c_bands:  2 eigenvalues not converged
     c_bands:  1 eigenvalues not converged
     c_bands:  2 eigenvalues not converged
     ethr =  1.81E-05,  avg # of iterations = 17.1

     total cpu time spent up to now is      569.3 secs

     total energy              =   -4240.94379136 Ry
     estimated scf accuracy    <       0.08709261 Ry

     iteration #  5     ecut=    80.00 Ry     beta= 0.70
     Davidson diagonalization with overlap
     ethr =  1.81E-05,  avg # of iterations =  6.3

     total cpu time spent up to now is      656.2 secs

     total energy              =   -4240.94620929 Ry
     estimated scf accuracy    <       0.01741045 Ry

     iteration #  6     ecut=    80.00 Ry     beta= 0.70
     Davidson diagonalization with overlap
     ethr =  1.81E-05,  avg # of iterations =  2.9

     total cpu time spent up to now is      729.4 secs

     total energy              =   -4240.94755013 Ry
     estimated scf accuracy    <       0.00182407 Ry

     iteration #  7     ecut=    80.00 Ry     beta= 0.70
     Davidson diagonalization with overlap
     c_bands:  1 eigenvalues not converged
     c_bands:  1 eigenvalues not converged
     c_bands:  1 eigenvalues not converged
     c_bands:  2 eigenvalues not converged
     c_bands:  1 eigenvalues not converged
     c_bands:  1 eigenvalues not converged
     c_bands:  1 eigenvalues not converged
     ethr =  2.17E-06,  avg # of iterations = 14.8

     total cpu time spent up to now is      861.0 secs

     total energy              =   -4240.94861941 Ry
     estimated scf accuracy    <       0.00234230 Ry

     iteration #  8     ecut=    80.00 Ry     beta= 0.70
     Davidson diagonalization with overlap
     c_bands:  1 eigenvalues not converged
     ethr =  2.17E-06,  avg # of iterations =  3.0

     total cpu time spent up to now is      931.7 secs

     total energy              =   -4240.94865780 Ry
     estimated scf accuracy    <       0.00040705 Ry

     iteration #  9     ecut=    80.00 Ry     beta= 0.70
     Davidson diagonalization with overlap
     c_bands:  1 eigenvalues not converged
     ethr =  4.85E-07,  avg # of iterations =  6.6

     total cpu time spent up to now is     1018.3 secs

     total energy              =   -4240.94876629 Ry
     estimated scf accuracy    <       0.00000966 Ry

     iteration # 10     ecut=    80.00 Ry     beta= 0.70
     Davidson diagonalization with overlap
     ethr =  1.15E-08,  avg # of iterations =  8.9

     total cpu time spent up to now is     1130.2 secs

     total energy              =   -4240.94877500 Ry
     estimated scf accuracy    <       0.00001317 Ry

     iteration # 11     ecut=    80.00 Ry     beta= 0.70
     Davidson diagonalization with overlap
     ethr =  1.15E-08,  avg # of iterations =  3.6

     total cpu time spent up to now is     1207.1 secs

     total energy              =   -4240.94877707 Ry
     estimated scf accuracy    <       0.00000010 Ry

     iteration # 12     ecut=    80.00 Ry     beta= 0.70
     Davidson diagonalization with overlap
     ethr =  1.23E-10,  avg # of iterations = 11.1

     total cpu time spent up to now is     1347.8 secs

     total energy              =   -4240.94877730 Ry
     estimated scf accuracy    <       0.00000030 Ry

     iteration # 13     ecut=    80.00 Ry     beta= 0.70
     Davidson diagonalization with overlap
     ethr =  1.23E-10,  avg # of iterations =  3.3

     total cpu time spent up to now is     1428.5 secs

     total energy              =   -4240.94877732 Ry
     estimated scf accuracy    <       0.00000002 Ry

     iteration # 14     ecut=    80.00 Ry     beta= 0.70
     Davidson diagonalization with overlap
     ethr =  1.95E-11,  avg # of iterations =  8.7

     total cpu time spent up to now is     1540.1 secs

     total energy              =   -4240.94877733 Ry
     estimated scf accuracy    <       0.00000003 Ry

     iteration # 15     ecut=    80.00 Ry     beta= 0.70
     Davidson diagonalization with overlap
     ethr =  1.95E-11,  avg # of iterations =  2.4

     total cpu time spent up to now is     1609.9 secs

     total energy              =   -4240.94877733 Ry
     estimated scf accuracy    <          5.3E-09 Ry

     iteration # 16     ecut=    80.00 Ry     beta= 0.70
     Davidson diagonalization with overlap
     ethr =  6.30E-12,  avg # of iterations =  6.5

     total cpu time spent up to now is     1693.5 secs

     total energy              =   -4240.94877733 Ry
     estimated scf accuracy    <          5.3E-10 Ry

     iteration # 17     ecut=    80.00 Ry     beta= 0.70
     Davidson diagonalization with overlap
     ethr =  6.31E-13,  avg # of iterations =  5.3

     total cpu time spent up to now is     1765.7 secs

     total energy              =   -4240.94877733 Ry
     estimated scf accuracy    <          3.9E-10 Ry

     iteration # 18     ecut=    80.00 Ry     beta= 0.70
     Davidson diagonalization with overlap
     ethr =  4.64E-13,  avg # of iterations =  2.2

     total cpu time spent up to now is     1827.8 secs

     total energy              =   -4240.94877733 Ry
     estimated scf accuracy    <          1.3E-10 Ry

     iteration # 19     ecut=    80.00 Ry     beta= 0.70
     Davidson diagonalization with overlap
     ethr =  1.52E-13,  avg # of iterations =  6.1

     total cpu time spent up to now is     1905.2 secs

     End of self-consistent calculation

          k = 0.0000 0.0000 0.0000 ( 36359 PWs)   bands (ev):

   -44.1446 -44.1446 -22.2802 -22.2802 -22.1810 -22.1810 -22.0687 -22.0686
    -7.7213  -7.2021  -7.1452  -6.8087  -6.4440  -5.3718  -5.0395  -4.8766
    -4.8233  -3.8540   0.4030   0.7232   0.7568   1.0863   1.5101   1.5363
     2.3897   2.4151   2.6775   2.8751   2.9921   3.0140   3.1658   3.4775
     3.6164   3.6943   3.8999   4.0539   4.1707   4.3129   4.3272   4.6418
     4.9950   5.5394   5.6078   5.7096   5.8414   5.9943   6.2985   6.8264
     6.9521   7.2790

          k = 0.0000 0.0000 0.1485 ( 36415 PWs)   bands (ev):

   -44.1446 -44.1446 -22.2802 -22.2802 -22.1810 -22.1810 -22.0687 -22.0686
    -7.6829  -7.3931  -6.9765  -6.8215  -6.3510  -5.6900  -4.8874  -4.8335
    -4.6897  -3.9712   0.4563   0.7605   0.9082   1.0390   1.0569   1.9732
     2.0932   2.4179   2.6074   2.9147   2.9845   3.1165   3.3706   3.3757
     3.6753   3.7731   3.8873   4.0498   4.1172   4.3324   4.3423   4.6514
     4.8513   5.0372   5.7569   5.9539   5.9940   6.0113   6.6164   6.6292
     6.7805   7.2411

          k = 0.0000 0.0000-0.2971 ( 36410 PWs)   bands (ev):

   -44.1446 -44.1446 -22.2802 -22.2802 -22.1810 -22.1810 -22.0687 -22.0687
    -7.5702  -7.5702  -6.8672  -6.8672  -6.0769  -6.0769  -4.8583  -4.8583
    -4.2808  -4.2808   0.6557   0.6557   0.8862   0.8862   1.4016   1.4016
     2.4974   2.4974   2.6761   2.6761   2.9600   2.9600   3.4259   3.4259
     3.8584   3.8584   3.9564   3.9564   4.3330   4.3330   4.4068   4.4068
     4.7030   4.7030   5.9570   5.9570   6.2238   6.2238   6.3891   6.3891
     7.0972   7.0972

          k = 0.2541 0.0645 0.0000 ( 36396 PWs)   bands (ev):

   -44.1442 -44.1442 -22.2783 -22.2783 -22.1909 -22.1909 -22.0675 -22.0674
    -7.6064  -7.0953  -7.0687  -6.7619  -6.3824  -5.3315  -5.0393  -4.8348
    -4.7807  -3.9968   0.4899   0.8556   0.8896   1.2047   1.3410   1.4070
     1.9018   1.9703   2.1800   2.5432   2.5816   3.0773   3.4027   3.6929
     3.7121   3.7435   3.7814   3.7850   4.0101   4.2174   4.2466   4.2530
     4.4749   4.6464   5.7439   5.9821   6.2542   6.5552   6.6196   6.8228
     7.0055   7.1509

          k = 0.2541 0.0645 0.1485 ( 36423 PWs)   bands (ev):

   -44.1442 -44.1442 -22.2783 -22.2783 -22.1909 -22.1909 -22.0675 -22.0674
    -7.5689  -7.2877  -6.9066  -6.7733  -6.2843  -5.6353  -4.8651  -4.7929
    -4.6963  -4.0907   0.5307   0.8950   0.9699   0.9806   1.1576   1.5442
     1.8321   2.2832   2.3746   2.5337   2.5549   2.9330   3.2904   3.3150
     3.6143   3.7139   3.8849   3.9088   4.0116   4.1149   4.2634   4.3042
     4.6856   4.9624   5.8182   5.8645   6.1982   6.2694   6.4564   6.7007
     7.2449   7.3075

          k = 0.2541 0.0645-0.2971 ( 36436 PWs)   bands (ev):

   -44.1442 -44.1442 -22.2783 -22.2783 -22.1909 -22.1909 -22.0674 -22.0674
    -7.4592  -7.4592  -6.8129  -6.8129  -6.0093  -6.0093  -4.8231  -4.8231
    -4.3476  -4.3476   0.6869   0.6869   0.9960   0.9960   1.2390   1.2390
     2.2845   2.2845   2.5059   2.5059   2.6778   2.6778   3.1335   3.1335
     3.6076   3.6076   3.8948   3.8948   4.0650   4.0650   4.3045   4.3045
     5.1173   5.1173   5.7581   5.7581   6.1098   6.1098   6.4514   6.4514
     7.4329   7.4329

          k = 0.5081 0.1290 0.0000 ( 36499 PWs)   bands (ev):

   -44.1433 -44.1433 -22.2736 -22.2736 -22.2147 -22.2147 -22.0646 -22.0645
    -7.2824  -6.8887  -6.7869  -6.6337  -6.1869  -5.2498  -5.0949  -4.7254
    -4.6755  -4.4266   0.5596   0.6023   0.6900   1.2085   1.2547   1.5035
     1.6766   1.7626   2.0580   2.0701   2.1661   2.2797   2.3484   3.3119
     3.3980   3.4628   3.4890   3.5866   3.7685   3.8836   3.9156   4.1611
     4.5266   5.2069   5.4627   5.9692   5.9841   6.5618   6.5754   6.8877
     7.4170   7.5659

          k = 0.5081 0.1290 0.1485 ( 36476 PWs)   bands (ev):

   -44.1433 -44.1433 -22.2736 -22.2736 -22.2147 -22.2147 -22.0646 -22.0645
    -7.2486  -7.0070  -6.7166  -6.6414  -6.0814  -5.5039  -4.9095  -4.7038
    -4.6775  -4.4584   0.5054   0.7023   0.8092   1.0565   1.2430   1.4184
     1.4806   1.6090   2.0276   2.0851   2.3258   2.5049   2.8028   3.3360
     3.3974   3.4212   3.4990   3.5820   3.6700   3.7524   3.8460   4.2199
     4.3575   4.5510   6.0735   6.1341   6.2497   6.5657   6.6179   6.7567
     7.2566   7.4940

          k = 0.5081 0.1290-0.2971 ( 36466 PWs)   bands (ev):

   -44.1433 -44.1433 -22.2736 -22.2736 -22.2147 -22.2147 -22.0645 -22.0645
    -7.1513  -7.1513  -6.6660  -6.6660  -5.8228  -5.8228  -4.7766  -4.7766
    -4.5560  -4.5559   0.5917   0.5917   1.0703   1.0703   1.1874   1.1874
     1.3869   1.3869   2.0572   2.0572   2.7433   2.7433   3.1346   3.1346
     3.3737   3.3737   3.5511   3.5511   3.7005   3.7005   3.8240   3.8240
     4.3039   4.3039   6.3122   6.3122   6.5441   6.5441   6.7975   6.7975
     7.1070   7.1070

          k = 0.7622 0.1934 0.0000 ( 36521 PWs)   bands (ev):

   -44.1424 -44.1424 -22.2687 -22.2687 -22.2384 -22.2384 -22.0616 -22.0616
    -6.8706  -6.7277  -6.3923  -6.3186  -5.8599  -5.3307  -5.2479  -5.0768
    -4.6027  -4.5673   0.0119   0.1754   0.6107   1.0854   1.1106   1.2484
     1.4768   1.5978   1.9327   2.0027   2.2649   2.4076   2.4403   2.7679
     2.8234   3.2609   3.3173   3.3972   3.6309   3.6850   3.7467   3.7827
     3.9172   4.5646   5.8113   6.2349   6.3051   6.7616   6.7774   6.8764
     7.2477   7.5895

          k = 0.7622 0.1934 0.1485 ( 36503 PWs)   bands (ev):

   -44.1424 -44.1424 -22.2687 -22.2687 -22.2384 -22.2384 -22.0616 -22.0616
    -6.8508  -6.7489  -6.3912  -6.3469  -5.7761  -5.4267  -5.1991  -5.0949
    -4.5929  -4.5688   0.0654   0.3005   0.4832   0.9442   1.0922   1.2138
     1.4918   1.6469   1.7999   2.0740   2.1357   2.6338   2.6919   2.8061
     2.8735   3.1205   3.2717   3.3877   3.5096   3.6210   3.6592   3.9164
     3.9815   4.6298   5.5153   6.2886   6.5924   6.6584   6.8201   6.9349
     7.0239   7.5181

          k = 0.7622 0.1934-0.2971 ( 36522 PWs)   bands (ev):

   -44.1424 -44.1424 -22.2687 -22.2687 -22.2384 -22.2384 -22.0616 -22.0616
    -6.8009  -6.8009  -6.3802  -6.3802  -5.6004  -5.6004  -5.1407  -5.1407
    -4.5769  -4.5769   0.2353   0.2353   0.6341   0.6341   1.0762   1.0762
     1.5715   1.5715   2.0013   2.0013   2.3676   2.3676   2.8021   2.8021
     2.9950   2.9950   3.3620   3.3620   3.5834   3.5834   3.8307   3.8307
     4.1433   4.1433   6.0462   6.0462   6.4021   6.4021   6.9025   6.9025
     7.3580   7.3580

          k =-1.0162-0.2579 0.0000 ( 36506 PWs)   bands (ev):

   -44.1420 -44.1420 -22.2666 -22.2666 -22.2483 -22.2483 -22.0604 -22.0604
    -6.6984  -6.6784  -5.8639  -5.8528  -5.7871  -5.7772  -5.4366  -5.4359
    -4.5456  -4.5235   0.0432   0.0678   0.3820   0.4025   1.0113   1.0203
     1.4665   1.6716   2.2335   2.3732   2.3792   2.3795   2.7890   2.8127
     2.8171   2.8873   3.2433   3.2626   3.3071   3.4570   3.5629   3.6803
     3.7761   3.9980   6.4413   6.4674   6.5052   6.5874   6.9732   7.0542
     7.0647   7.0728

          k =-1.0162-0.2579 0.1485 ( 36506 PWs)   bands (ev):

   -44.1420 -44.1420 -22.2666 -22.2666 -22.2483 -22.2483 -22.0604 -22.0604
    -6.6947  -6.6805  -5.8795  -5.8710  -5.7719  -5.7658  -5.4297  -5.4295
    -4.5468  -4.5313  -0.0504  -0.0425   0.6057   0.6120   1.0182   1.0407
     1.4638   1.5885   1.9460   2.0312   2.3751   2.3898   2.7298   2.7301
     2.9451   2.9989   3.1416   3.2036   3.5524   3.5666   3.6971   3.7442
     4.0590   4.1145   5.9202   5.9322   6.4305   6.5048   6.9970   7.0300
     7.2693   7.3032

          k =-1.0162-0.2579-0.2971 ( 36528 PWs)   bands (ev):

   -44.1420 -44.1420 -22.2666 -22.2666 -22.2483 -22.2483 -22.0604 -22.0604
    -6.6869  -6.6869  -5.8886  -5.8886  -5.7592  -5.7592  -5.4229  -5.4229
    -4.5436  -4.5436  -0.1085  -0.1085   0.9127   0.9127   0.9437   0.9437
     1.5523   1.5523   1.6421   1.6421   2.3752   2.3752   2.7761   2.7761
     2.9278   2.9278   3.1728   3.1728   3.6164   3.6164   3.7889   3.7889
     4.4820   4.4820   5.4067   5.4067   6.3906   6.3906   7.0365   7.0365
     7.3521   7.3521

          k = 0.5081 0.0000 0.0000 ( 36503 PWs)   bands (ev):

   -44.1433 -44.1433 -22.2736 -22.2736 -22.2147 -22.2147 -22.0646 -22.0645
    -7.2876  -6.8903  -6.7878  -6.6277  -6.1829  -5.2504  -5.0917  -4.7206
    -4.6814  -4.4262   0.5606   0.6086   0.6843   1.1798   1.2497   1.4819
     1.6790   1.7677   2.0565   2.0812   2.1239   2.2825   2.3443   3.2967
     3.4191   3.4345   3.5465   3.5986   3.7746   3.8693   3.9626   4.1982
     4.5287   5.2055   5.4685   5.9608   6.0072   6.5221   6.5245   6.9231
     7.4395   7.5763

          k = 0.5081 0.0000 0.1485 ( 36453 PWs)   bands (ev):

   -44.1433 -44.1433 -22.2736 -22.2736 -22.2147 -22.2147 -22.0646 -22.0645
    -7.2537  -7.0108  -6.7135  -6.6355  -6.0792  -5.5043  -4.9041  -4.7057
    -4.6776  -4.4593   0.5052   0.6974   0.8128   1.0583   1.2198   1.4295
     1.4435   1.5994   2.0233   2.0917   2.3352   2.4719   2.7966   3.3241
     3.3996   3.4536   3.4979   3.5909   3.6652   3.8163   3.8397   4.2564
     4.3718   4.5486   6.0706   6.1477   6.2615   6.5156   6.5820   6.7879
     7.2803   7.5003

          k = 0.5081 0.0000-0.2971 ( 36452 PWs)   bands (ev):

   -44.1433 -44.1433 -22.2736 -22.2736 -22.2147 -22.2147 -22.0645 -22.0645
    -7.1561  -7.1561  -6.6606  -6.6606  -5.8227  -5.8227  -4.7725  -4.7725
    -4.5587  -4.5587   0.5880   0.5880   1.0703   1.0703   1.2051   1.2051
     1.3437   1.3437   2.0582   2.0582   2.7343   2.7343   3.1174   3.1174
     3.3699   3.3699   3.5869   3.5869   3.7202   3.7202   3.8261   3.8261
     4.3265   4.3265   6.3280   6.3280   6.5085   6.5085   6.8137   6.8137
     7.1086   7.1086

          k = 0.7622 0.0645 0.0000 ( 36505 PWs)   bands (ev):

   -44.1424 -44.1424 -22.2687 -22.2687 -22.2384 -22.2384 -22.0616 -22.0616
    -6.8797  -6.7256  -6.3834  -6.3206  -5.8594  -5.3267  -5.2486  -5.0763
    -4.5948  -4.5763   0.0068   0.1865   0.6317   1.0984   1.1175   1.2627
     1.4367   1.5569   1.9080   2.0185   2.2483   2.3638   2.4224   2.7409
     2.8101   3.3144   3.3434   3.4137   3.6164   3.6486   3.7697   3.8265
     3.9350   4.6040   5.8093   6.2454   6.2764   6.7314   6.8338   6.8350
     7.2678   7.7441

          k = 0.7622 0.0645 0.1485 ( 36509 PWs)   bands (ev):

   -44.1424 -44.1424 -22.2687 -22.2687 -22.2384 -22.2384 -22.0616 -22.0616
    -6.8591  -6.7497  -6.3826  -6.3453  -5.7767  -5.4264  -5.1969  -5.0940
    -4.5875  -4.5752   0.0656   0.3052   0.4927   0.9590   1.0953   1.2293
     1.4564   1.6468   1.8257   2.0012   2.0654   2.6531   2.6754   2.7837
     2.8588   3.1222   3.3336   3.4016   3.4842   3.6335   3.6764   3.9352
     4.0216   4.6283   5.5415   6.2700   6.5998   6.6536   6.8361   6.9318
     7.0010   7.5369

          k = 0.7622 0.0645-0.2971 ( 36472 PWs)   bands (ev):

   -44.1424 -44.1424 -22.2687 -22.2687 -22.2384 -22.2384 -22.0616 -22.0616
    -6.8063  -6.8063  -6.3736  -6.3736  -5.6016  -5.6016  -5.1388  -5.1388
    -4.5772  -4.5772   0.2406   0.2406   0.6288   0.6288   1.1007   1.1007
     1.5650   1.5650   1.9528   1.9528   2.3355   2.3355   2.8000   2.8000
     2.9862   2.9862   3.4256   3.4256   3.5801   3.5801   3.8194   3.8194
     4.1661   4.1661   6.0709   6.0709   6.4033   6.4033   6.8688   6.8688
     7.3849   7.3849

          k = 1.0162 0.1290 0.0000 ( 36514 PWs)   bands (ev):

   -44.1420 -44.1420 -22.2666 -22.2666 -22.2483 -22.2483 -22.0604 -22.0604
    -6.6984  -6.6784  -5.8635  -5.8531  -5.7871  -5.7772  -5.4366  -5.4358
    -4.5456  -4.5235   0.0372   0.0739   0.3770   0.4077   1.0057   1.0273
     1.4719   1.6628   2.2351   2.3665   2.3684   2.3852   2.7877   2.8092
     2.8398   2.8909   3.2423   3.2581   3.3069   3.4486   3.5876   3.6664
     3.7580   4.0102   6.4340   6.4755   6.5003   6.5933   6.9874   7.0561
     7.0643   7.0668

          k = 1.0162 0.1290 0.1485 ( 36524 PWs)   bands (ev):

   -44.1420 -44.1420 -22.2666 -22.2666 -22.2483 -22.2483 -22.0604 -22.0604
    -6.6947  -6.6805  -5.8793  -5.8712  -5.7718  -5.7659  -5.4299  -5.4292
    -4.5468  -4.5313  -0.0526  -0.0407   0.6062   0.6122   1.0218   1.0378
     1.4685   1.5844   1.9564   2.0167   2.3706   2.3853   2.6842   2.7833
     2.9611   3.0127   3.1217   3.2007   3.5328   3.6042   3.6890   3.7275
     4.0437   4.1338   5.9107   5.9445   6.4276   6.5074   7.0036   7.0287
     7.2743   7.2986

          k = 1.0162 0.1290-0.2971 ( 36516 PWs)   bands (ev):

   -44.1420 -44.1420 -22.2666 -22.2666 -22.2483 -22.2483 -22.0604 -22.0604
    -6.6869  -6.6869  -5.8886  -5.8886  -5.7592  -5.7592  -5.4229  -5.4229
    -4.5436  -4.5436  -0.1087  -0.1087   0.9114   0.9114   0.9458   0.9458
     1.5525   1.5525   1.6432   1.6432   2.3654   2.3654   2.7603   2.7603
     2.9784   2.9784   3.1456   3.1456   3.6216   3.6216   3.7830   3.7830
     4.4824   4.4824   5.4088   5.4088   6.3901   6.3901   7.0385   7.0385
     7.3524   7.3524

          k =-0.7622-0.3224 0.0000 ( 36511 PWs)   bands (ev):

   -44.1424 -44.1424 -22.2687 -22.2687 -22.2384 -22.2384 -22.0616 -22.0616
    -6.8562  -6.7318  -6.4049  -6.3157  -5.8607  -5.3364  -5.2468  -5.0775
    -4.6092  -4.5593   0.0192   0.1602   0.5824   1.0565   1.1278   1.2300
     1.5000   1.6627   1.9825   1.9843   2.3125   2.4362   2.4660   2.8046
     2.8391   3.1884   3.2955   3.4114   3.5879   3.6590   3.7277   3.8187
     3.8779   4.4998   5.8142   6.2254   6.3494   6.6954   6.8077   6.9430
     7.2120   7.5826

          k =-0.7622-0.3224 0.1485 ( 36492 PWs)   bands (ev):

   -44.1424 -44.1424 -22.2687 -22.2687 -22.2384 -22.2384 -22.0616 -22.0616
    -6.8379  -6.7487  -6.4035  -6.3493  -5.7751  -5.4272  -5.2021  -5.0962
    -4.5973  -4.5631   0.0644   0.2955   0.4688   0.9232   1.0984   1.1924
     1.5355   1.6442   1.7799   2.1801   2.2290   2.6165   2.7013   2.8317
     2.8893   3.1401   3.1917   3.3736   3.4792   3.6191   3.6639   3.8831
     3.9201   4.6307   5.4802   6.3187   6.5683   6.6620   6.7991   6.9690
     7.0504   7.4840

          k =-0.7622-0.3224-0.2971 ( 36508 PWs)   bands (ev):

   -44.1424 -44.1424 -22.2687 -22.2687 -22.2384 -22.2384 -22.0616 -22.0616
    -6.7928  -6.7928  -6.3898  -6.3898  -5.5987  -5.5987  -5.1435  -5.1435
    -4.5764  -4.5764   0.2277   0.2277   0.6415   0.6415   1.0478   1.0478
     1.5789   1.5789   2.0558   2.0558   2.4323   2.4323   2.8070   2.8070
     3.0070   3.0070   3.2726   3.2726   3.5848   3.5848   3.8340   3.8340
     4.1160   4.1160   6.0137   6.0137   6.3991   6.3991   6.9590   6.9590
     7.3122   7.3122

          k =-0.5081-0.2579 0.0000 ( 36480 PWs)   bands (ev):

   -44.1433 -44.1433 -22.2736 -22.2736 -22.2147 -22.2147 -22.0646 -22.0645
    -7.2692  -6.8856  -6.7846  -6.6477  -6.1970  -5.2483  -5.1028  -4.7327
    -4.6653  -4.4277   0.5612   0.5877   0.6952   1.2662   1.2935   1.5555
     1.6755   1.7527   2.0284   2.1056   2.2273   2.2756   2.3550   3.3477
     3.3684   3.3968   3.4960   3.5156   3.7404   3.8434   3.8949   4.0864
     4.5179   5.2080   5.4511   5.8806   6.0401   6.6611   6.6958   6.8032
     7.3533   7.5438

          k =-0.5081-0.2579 0.1485 ( 36485 PWs)   bands (ev):

   -44.1433 -44.1433 -22.2736 -22.2736 -22.2147 -22.2147 -22.0646 -22.0645
    -7.2356  -6.9976  -6.7247  -6.6557  -6.0867  -5.5028  -4.9220  -4.7003
    -4.6765  -4.4563   0.5065   0.7112   0.7997   1.0525   1.3067   1.4157
     1.5482   1.6370   2.0331   2.0760   2.3138   2.5673   2.8175   3.3232
     3.3652   3.4034   3.5000   3.5313   3.6404   3.7073   3.8323   4.1440
     4.3149   4.5551   6.0584   6.1167   6.2294   6.6675   6.6925   6.7178
     7.1944   7.4821

          k =-0.5081-0.2579-0.2971 ( 36478 PWs)   bands (ev):

   -44.1433 -44.1433 -22.2736 -22.2736 -22.2147 -22.2147 -22.0645 -22.0645
    -7.1392  -7.1392  -6.6798  -6.6798  -5.8231  -5.8231  -4.7861  -4.7861
    -4.5496  -4.5496   0.6002   0.6002   1.0698   1.0698   1.1612   1.1612
     1.4829   1.4829   2.0522   2.0522   2.7682   2.7682   3.1735   3.1735
     3.3738   3.3738   3.4440   3.4440   3.6880   3.6880   3.8126   3.8126
     4.2486   4.2486   6.2743   6.2743   6.6198   6.6198   6.7644   6.7644
     7.1094   7.1094

          k =-0.2541-0.1934 0.0000 ( 36410 PWs)   bands (ev):

   -44.1442 -44.1442 -22.2783 -22.2783 -22.1909 -22.1909 -22.0675 -22.0674
    -7.5972  -7.0937  -7.0610  -6.7729  -6.3970  -5.3315  -5.0467  -4.8425
    -4.7702  -3.9979   0.5180   0.8981   0.9274   1.2318   1.3738   1.4059
     1.9254   1.9913   2.1825   2.5094   2.5675   3.1437   3.3474   3.6061
     3.6411   3.7098   3.7617   3.8478   3.8957   4.1989   4.2108   4.2286
     4.4039   4.6324   5.7961   6.0034   6.3087   6.6008   6.6145   6.8359
     6.9949   7.0723

          k =-0.2541-0.1934 0.1485 ( 36427 PWs)   bands (ev):

   -44.1442 -44.1442 -22.2783 -22.2783 -22.1909 -22.1909 -22.0675 -22.0674
    -7.5598  -7.2801  -6.9093  -6.7840  -6.2940  -5.6357  -4.8833  -4.7872
    -4.6896  -4.0906   0.5550   0.9385   0.9862   1.0307   1.1880   1.5600
     1.8360   2.2857   2.3975   2.5153   2.5411   2.9172   3.3028   3.3554
     3.5786   3.6380   3.7449   3.8929   3.9732   4.0954   4.2227   4.2506
     4.6759   4.9492   5.8011   5.8859   6.1802   6.3310   6.5299   6.7068
     7.2026   7.2984

          k =-0.2541-0.1934-0.2971 ( 36422 PWs)   bands (ev):

   -44.1442 -44.1442 -22.2783 -22.2783 -22.1909 -22.1909 -22.0674 -22.0674
    -7.4504  -7.4504  -6.8219  -6.8219  -6.0124  -6.0124  -4.8287  -4.8287
    -4.3449  -4.3449   0.7051   0.7051   1.0604   1.0604   1.2476   1.2476
     2.2846   2.2846   2.4931   2.4931   2.6777   2.6777   3.1593   3.1593
     3.5569   3.5569   3.8088   3.8088   4.0513   4.0513   4.2491   4.2491
     5.1211   5.1211   5.7177   5.7177   6.1083   6.1083   6.5365   6.5365
     7.4085   7.4085

          k = 0.0000-0.1290 0.0000 ( 36417 PWs)   bands (ev):

   -44.1446 -44.1446 -22.2802 -22.2802 -22.1810 -22.1810 -22.0687 -22.0686
    -7.7164  -7.2013  -7.1402  -6.8148  -6.4531  -5.3722  -5.0435  -4.8824
    -4.8161  -3.8546   0.4249   0.7619   0.7648   1.0935   1.5359   1.5472
     2.3922   2.4161   2.6846   2.8737   2.9899   3.0206   3.2035   3.4523
     3.5568   3.6834   3.8013   4.0144   4.1708   4.2606   4.2770   4.6422
     4.9857   5.4986   5.6333   5.7170   5.8575   6.0402   6.3494   6.8062
     6.9525   7.2564

          k = 0.0000-0.1290 0.1485 ( 36419 PWs)   bands (ev):

   -44.1446 -44.1446 -22.2802 -22.2802 -22.1810 -22.1810 -22.0687 -22.0686
    -7.6781  -7.3890  -6.9770  -6.8273  -6.3575  -5.6906  -4.8983  -4.8294
    -4.6863  -3.9713   0.4761   0.8024   0.9210   1.0372   1.0800   1.9805
     2.1092   2.4206   2.6125   2.9142   2.9826   3.1329   3.3347   3.3743
     3.6686   3.7635   3.7940   3.9869   4.1152   4.2838   4.2952   4.6517
     4.8464   5.0259   5.7667   5.9581   6.0119   6.0384   6.6049   6.6612
     6.7813   7.2271

          k = 0.0000-0.1290-0.2971 ( 36464 PWs)   bands (ev):

   -44.1446 -44.1446 -22.2802 -22.2802 -22.1810 -22.1810 -22.0687 -22.0687
    -7.5655  -7.5655  -6.8717  -6.8717  -6.0794  -6.0794  -4.8612  -4.8612
    -4.2796  -4.2796   0.6789   0.6789   0.9075   0.9075   1.4100   1.4100
     2.5009   2.5009   2.6868   2.6868   2.9589   2.9589   3.4009   3.4009
     3.8154   3.8154   3.9501   3.9501   4.2433   4.2433   4.4216   4.4216
     4.7021   4.7021   5.9557   5.9557   6.2455   6.2455   6.3911   6.3911
     7.0981   7.0981

          k = 1.0162 0.0000 0.0000 ( 36499 PWs)   bands (ev):

   -44.1420 -44.1420 -22.2666 -22.2666 -22.2483 -22.2483 -22.0604 -22.0604
    -6.6984  -6.6784  -5.8632  -5.8535  -5.7871  -5.7772  -5.4367  -5.4357
    -4.5456  -4.5235   0.0328   0.0784   0.3732   0.4116   1.0027   1.0317
     1.4780   1.6533   2.2365   2.3552   2.3659   2.3887   2.7865   2.8055
     2.8588   2.8968   3.2385   3.2758   3.2891   3.4362   3.6216   3.6545
     3.7319   4.0215   6.4288   6.4815   6.4959   6.5987   7.0069   7.0505
     7.0580   7.0690

          k = 1.0162 0.0000 0.1485 ( 36485 PWs)   bands (ev):

   -44.1420 -44.1420 -22.2666 -22.2666 -22.2483 -22.2483 -22.0604 -22.0604
    -6.6947  -6.6805  -5.8791  -5.8714  -5.7718  -5.7659  -5.4301  -5.4291
    -4.5468  -4.5313  -0.0542  -0.0395   0.6066   0.6123   1.0300   1.0303
     1.4737   1.5798   1.9805   1.9884   2.3690   2.3785   2.6694   2.8017
     2.9806   3.0543   3.0735   3.1985   3.5265   3.6348   3.6851   3.7003
     4.0336   4.1478   5.9058   5.9521   6.4249   6.5098   7.0120   7.0255
     7.2842   7.2890

          k = 1.0162 0.0000-0.2971 ( 36514 PWs)   bands (ev):

   -44.1420 -44.1420 -22.2666 -22.2666 -22.2483 -22.2483 -22.0604 -22.0604
    -6.6869  -6.6869  -5.8886  -5.8886  -5.7592  -5.7592  -5.4229  -5.4229
    -4.5436  -4.5436  -0.1088  -0.1088   0.9103   0.9103   0.9477   0.9477
     1.5527   1.5527   1.6443   1.6443   2.3559   2.3559   2.7493   2.7493
     3.0598   3.0598   3.0826   3.0826   3.6270   3.6270   3.7769   3.7769
     4.4828   4.4828   5.4109   5.4109   6.3897   6.3897   7.0406   7.0406
     7.3526   7.3526

          k = 1.2703 0.0645 0.0000 ( 36468 PWs)   bands (ev):

   -44.1424 -44.1424 -22.2687 -22.2687 -22.2384 -22.2384 -22.0616 -22.0616
    -6.8446  -6.7360  -6.4139  -6.3137  -5.8613  -5.3404  -5.2460  -5.0780
    -4.6125  -4.5549   0.0245   0.1497   0.5630   1.0432   1.1398   1.2173
     1.5044   1.7089   1.9694   2.0343   2.3606   2.4324   2.4847   2.8320
     2.8450   3.1264   3.3129   3.4689   3.5356   3.5600   3.7265   3.8371
     3.8905   4.4434   5.8164   6.2233   6.3834   6.6368   6.8435   6.9998
     7.1764   7.5866

          k = 1.2703 0.0645 0.1485 ( 36490 PWs)   bands (ev):

   -44.1424 -44.1424 -22.2687 -22.2687 -22.2384 -22.2384 -22.0616 -22.0616
    -6.8276  -6.7495  -6.4123  -6.3512  -5.7745  -5.4276  -5.2041  -5.0971
    -4.5995  -4.5600   0.0631   0.2932   0.4581   0.9095   1.1077   1.1769
     1.5663   1.6379   1.7717   2.2576   2.3003   2.6028   2.7033   2.8438
     2.9014   3.1274   3.1784   3.3715   3.4327   3.5709   3.7429   3.8239
     3.8813   4.6303   5.4569   6.3449   6.5383   6.6637   6.7913   7.0085
     7.0654   7.4542

          k = 1.2703 0.0645-0.2971 ( 36480 PWs)   bands (ev):

   -44.1424 -44.1424 -22.2687 -22.2687 -22.2384 -22.2384 -22.0616 -22.0616
    -6.7869  -6.7869  -6.3969  -6.3969  -5.5975  -5.5975  -5.1455  -5.1455
    -4.5760  -4.5760   0.2222   0.2222   0.6466   0.6466   1.0311   1.0311
     1.5839   1.5839   2.0833   2.0833   2.4945   2.4945   2.8185   2.8185
     3.0120   3.0120   3.2008   3.2008   3.5862   3.5862   3.8267   3.8267
     4.1017   4.1017   5.9922   5.9922   6.3963   6.3963   7.0091   7.0091
     7.2706   7.2706

          k =-0.5081-0.3869 0.0000 ( 36463 PWs)   bands (ev):

   -44.1433 -44.1433 -22.2736 -22.2736 -22.2147 -22.2147 -22.0646 -22.0645
    -7.2550  -6.8836  -6.7823  -6.6610  -6.2075  -5.2468  -5.1107  -4.7371
    -4.6580  -4.4287   0.5680   0.5739   0.6891   1.2767   1.4206   1.5952
     1.6664   1.7449   2.0147   2.1462   2.2584   2.2782   2.3552   3.2486
     3.3755   3.4107   3.4260   3.5488   3.7013   3.8069   3.8174   4.0786
     4.5062   5.2039   5.4419   5.7911   6.1028   6.7180   6.7738   6.8149
     7.2686   7.5383

          k =-0.5081-0.3869 0.1485 ( 36477 PWs)   bands (ev):

   -44.1433 -44.1433 -22.2736 -22.2736 -22.2147 -22.2147 -22.0646 -22.0645
    -7.2217  -6.9879  -6.7341  -6.6698  -6.0919  -5.5018  -4.9338  -4.6985
    -4.6746  -4.4542   0.5084   0.7175   0.7879   1.0491   1.3848   1.4198
     1.5975   1.6863   2.0341   2.0756   2.3041   2.6107   2.8347   3.2116
     3.3700   3.4048   3.4439   3.5342   3.6441   3.6945   3.7786   4.1106
     4.2521   4.5581   6.0044   6.1310   6.2197   6.6094   6.7828   6.8392
     7.1163   7.4828

          k =-0.5081-0.3869-0.2971 ( 36492 PWs)   bands (ev):

   -44.1433 -44.1433 -22.2736 -22.2736 -22.2147 -22.2147 -22.0645 -22.0645
    -7.1263  -7.1263  -6.6944  -6.6944  -5.8233  -5.8233  -4.7952  -4.7952
    -4.5436  -4.5436   0.6081   0.6081   1.0687   1.0687   1.1435   1.1435
     1.5875   1.5875   2.0394   2.0394   2.7991   2.7991   3.1780   3.1780
     3.3246   3.3246   3.4089   3.4089   3.6827   3.6827   3.7963   3.7963
     4.1937   4.1937   6.2378   6.2378   6.6537   6.6537   6.7637   6.7637
     7.1250   7.1250

          k =-0.2541-0.3224 0.0000 ( 36485 PWs)   bands (ev):

   -44.1442 -44.1442 -22.2783 -22.2783 -22.1909 -22.1909 -22.0675 -22.0674
    -7.5835  -7.0915  -7.0507  -6.7873  -6.4187  -5.3314  -5.0577  -4.8476
    -4.7606  -3.9994   0.5441   0.9113   1.0517   1.2809   1.4016   1.4457
     1.9617   2.0245   2.1834   2.4318   2.5200   3.2574   3.2575   3.4249
     3.5915   3.6303   3.7382   3.8672   3.8789   4.1061   4.1660   4.1949
     4.3854   4.5923   5.8788   6.0232   6.3587   6.5730   6.7001   6.8538
     6.9269   7.0129

          k =-0.2541-0.3224 0.1485 ( 36445 PWs)   bands (ev):

   -44.1442 -44.1442 -22.2783 -22.2783 -22.1909 -22.1909 -22.0675 -22.0674
    -7.5463  -7.2690  -6.9143  -6.7987  -6.3080  -5.6361  -4.9045  -4.7828
    -4.6811  -4.0904   0.5759   0.9643   1.0166   1.1496   1.2650   1.5841
     1.8474   2.2869   2.4230   2.4424   2.5207   2.8959   3.3421   3.3689
     3.4145   3.5340   3.7062   3.8830   3.9118   4.0698   4.1389   4.1958
     4.6925   4.9182   5.7847   5.9154   6.1738   6.3410   6.6295   6.7280
     7.1541   7.2839

          k =-0.2541-0.3224-0.2971 ( 36442 PWs)   bands (ev):

   -44.1442 -44.1442 -22.2783 -22.2783 -22.1909 -22.1909 -22.0674 -22.0674
    -7.4375  -7.4375  -6.8353  -6.8353  -6.0166  -6.0166  -4.8365  -4.8365
    -4.3411  -4.3411   0.7181   0.7181   1.1869   1.1869   1.2593   1.2593
     2.2854   2.2854   2.4528   2.4528   2.6735   2.6735   3.2042   3.2042
     3.3949   3.3949   3.7928   3.7928   4.0235   4.0235   4.1776   4.1776
     5.1288   5.1288   5.6737   5.6737   6.0860   6.0860   6.6420   6.6420
     7.3778   7.3778

          k = 0.0000-0.2579 0.0000 ( 36445 PWs)   bands (ev):

   -44.1446 -44.1446 -22.2802 -22.2802 -22.1810 -22.1810 -22.0687 -22.0686
    -7.7044  -7.1992  -7.1280  -6.8286  -6.4759  -5.3730  -5.0541  -4.8897
    -4.8047  -3.8562   0.4666   0.7747   0.8784   1.1385   1.5723   1.5931
     2.3982   2.4192   2.7024   2.8705   2.9839   3.0482   3.3009   3.3054
     3.3459   3.6568   3.6798   3.9718   4.1236   4.1489   4.1708   4.6432
     4.9636   5.4405   5.6991   5.7348   5.8971   6.1090   6.4431   6.7373
     6.9535   7.2159

          k = 0.0000-0.2579 0.1485 ( 36452 PWs)   bands (ev):

   -44.1446 -44.1446 -22.2802 -22.2802 -22.1810 -22.1810 -22.0687 -22.0686
    -7.6661  -7.3790  -6.9788  -6.8408  -6.3734  -5.6919  -4.9196  -4.8236
    -4.6787  -3.9713   0.5104   0.9055   0.9577   1.0859   1.1142   2.0003
     2.1458   2.4272   2.6251   2.9132   2.9776   3.1346   3.2420   3.2870
     3.6297   3.6596   3.7402   3.9196   4.1101   4.1590   4.1803   4.6525
     4.8347   5.0109   5.7976   5.9684   6.0477   6.0749   6.5706   6.7157
     6.7835   7.1930

          k = 0.0000-0.2579-0.2971 ( 36454 PWs)   bands (ev):

   -44.1446 -44.1446 -22.2802 -22.2802 -22.1810 -22.1810 -22.0687 -22.0687
    -7.5541  -7.5541  -6.8828  -6.8828  -6.0850  -6.0850  -4.8680  -4.8680
    -4.2766  -4.2766   0.7117   0.7117   0.9957   0.9957   1.4310   1.4310
     2.5094   2.5094   2.7077   2.7077   2.9563   2.9563   3.2652   3.2652
     3.7712   3.7712   3.9346   3.9346   4.1049   4.1049   4.4116   4.4116
     4.7002   4.7002   5.9439   5.9439   6.2860   6.2860   6.3960   6.3960
     7.0849   7.0850

          k = 1.5243 0.0000 0.0000 ( 36439 PWs)   bands (ev):

   -44.1433 -44.1433 -22.2736 -22.2736 -22.2147 -22.2147 -22.0646 -22.0645
    -7.2489  -6.8833  -6.7814  -6.6662  -6.2119  -5.2462  -5.1140  -4.7384
    -4.6555  -4.4292   0.5684   0.5726   0.6833   1.2808   1.5291   1.5778
     1.6397   1.7418   2.0264   2.1654   2.2495   2.2889   2.3524   3.1999
     3.3573   3.3868   3.4383   3.6378   3.6875   3.6910   3.8094   4.0946
     4.5007   5.1999   5.4386   5.7544   6.1313   6.6818   6.8317   6.8634
     7.2217   7.5685

          k = 1.5243 0.0000 0.1485 ( 36476 PWs)   bands (ev):

   -44.1433 -44.1433 -22.2736 -22.2736 -22.2147 -22.2147 -22.0646 -22.0645
    -7.2157  -6.9838  -6.7383  -6.6757  -6.0941  -5.5014  -4.9385  -4.6981
    -4.6735  -4.4533   0.5094   0.7199   0.7819   1.0478   1.4107   1.4367
     1.6070   1.7162   2.0434   2.0696   2.2990   2.6201   2.8449   3.1636
     3.3286   3.4164   3.4278   3.6006   3.6399   3.6915   3.7083   4.1306
     4.2058   4.5594   5.9775   6.1410   6.2174   6.5801   6.8264   6.9046
     7.0677   7.4944

          k = 1.5243 0.0000-0.2971 ( 36508 PWs)   bands (ev):

   -44.1433 -44.1433 -22.2736 -22.2736 -22.2147 -22.2147 -22.0645 -22.0645
    -7.1207  -7.1207  -6.7007  -6.7007  -5.8233  -5.8233  -4.7989  -4.7989
    -4.5413  -4.5413   0.6112   0.6112   1.0680   1.0680   1.1373   1.1373
     1.6377   1.6377   2.0292   2.0292   2.8147   2.8147   3.1436   3.1436
     3.3253   3.3253   3.4091   3.4091   3.6763   3.6763   3.7890   3.7890
     4.1717   4.1717   6.2230   6.2230   6.6488   6.6488   6.7782   6.7782
     7.1373   7.1373

          k =-0.2541-0.4514 0.0000 ( 36444 PWs)   bands (ev):

   -44.1442 -44.1442 -22.2783 -22.2783 -22.1909 -22.1909 -22.0675 -22.0674
    -7.5734  -7.0899  -7.0440  -6.7964  -6.4350  -5.3313  -5.0657  -4.8489
    -4.7559  -4.0004   0.5534   0.9214   1.1671   1.3099   1.3966   1.5333
     2.0003   2.0505   2.1781   2.3443   2.4443   3.1860   3.2922   3.3569
     3.5712   3.6064   3.7544   3.7992   3.8641   4.0687   4.1389   4.1527
     4.4075   4.5515   5.9471   6.0329   6.3825   6.5481   6.7589   6.8495
     6.8651   6.9991

          k =-0.2541-0.4514 0.1485 ( 36461 PWs)   bands (ev):

   -44.1442 -44.1442 -22.2783 -22.2783 -22.1909 -22.1909 -22.0675 -22.0674
    -7.5363  -7.2609  -6.9189  -6.8086  -6.3180  -5.6362  -4.9177  -4.7810
    -4.6756  -4.0903   0.5824   0.9786   1.0264   1.2838   1.3346   1.6060
     1.8664   2.2805   2.3541   2.4219   2.4928   2.8856   3.2747   3.2925
     3.4030   3.5503   3.7420   3.8506   3.8609   3.9798   4.1343   4.1606
     4.7230   4.8837   5.7761   5.9386   6.1811   6.3084   6.6974   6.7420
     7.1298   7.2724

          k =-0.2541-0.4514-0.2971 ( 36490 PWs)   bands (ev):

   -44.1442 -44.1442 -22.2783 -22.2783 -22.1909 -22.1909 -22.0674 -22.0674
    -7.4280  -7.4280  -6.8453  -6.8453  -6.0194  -6.0194  -4.8420  -4.8420
    -4.3384  -4.3384   0.7213   0.7213   1.2669   1.2669   1.3091   1.3091
     2.2835   2.2835   2.3929   2.3929   2.6710   2.6710   3.2208   3.2208
     3.2948   3.2948   3.8010   3.8010   3.9889   3.9889   4.1407   4.1407
     5.1359   5.1359   5.6473   5.6473   6.0634   6.0634   6.7054   6.7054
     7.3590   7.3590

          k = 0.0000-0.3869 0.0000 ( 36477 PWs)   bands (ev):

   -44.1446 -44.1446 -22.2802 -22.2802 -22.1810 -22.1810 -22.0687 -22.0686
    -7.6917  -7.1972  -7.1162  -6.8409  -6.5004  -5.3737  -5.0654  -4.8918
    -4.7976  -3.8577   0.4901   0.7882   1.0340   1.2018   1.5960   1.6597
     2.4043   2.4218   2.7216   2.8672   2.9773   3.0497   3.0733   3.0930
     3.4498   3.6296   3.6810   3.9413   3.9562   4.0126   4.1706   4.6445
     4.9418   5.4080   5.7527   5.7723   5.9420   6.1500   6.5075   6.6391
     6.9542   7.1907

          k = 0.0000-0.3869 0.1485 ( 36452 PWs)   bands (ev):

   -44.1446 -44.1446 -22.2802 -22.2802 -22.1810 -22.1810 -22.0687 -22.0686
    -7.6536  -7.3688  -6.9819  -6.8537  -6.3897  -5.6930  -4.9376  -4.8205
    -4.6719  -3.9714   0.5258   0.9879   1.0082   1.1555   1.2068   2.0233
     2.1800   2.4339   2.6380   2.9128   2.9646   2.9721   3.0174   3.3157
     3.5944   3.6694   3.7164   3.9096   4.0178   4.0578   4.1047   4.6536
     4.8232   5.0050   5.8382   5.9792   6.0774   6.0831   6.5226   6.7481
     6.7856   7.1623

          k = 0.0000-0.3869-0.2971 ( 36454 PWs)   bands (ev):

   -44.1446 -44.1446 -22.2802 -22.2802 -22.1810 -22.1810 -22.0687 -22.0687
    -7.5421  -7.5421  -6.8946  -6.8946  -6.0905  -6.0905  -4.8750  -4.8750
    -4.2736  -4.2736   0.7202   0.7202   1.1365   1.1365   1.4535   1.4535
     2.5182   2.5182   2.6971   2.6971   2.9538   2.9538   3.0765   3.0765
     3.7928   3.7928   3.9189   3.9189   3.9890   3.9890   4.3962   4.3962
     4.6984   4.6984   5.9236   5.9236   6.3138   6.3138   6.4013   6.4013
     7.0591   7.0591

          k =-2.0325 0.0000 0.0000 ( 36452 PWs)   bands (ev):

   -44.1446 -44.1446 -22.2802 -22.2802 -22.1810 -22.1810 -22.0687 -22.0686
    -7.6863  -7.1963  -7.1115  -6.8454  -6.5111  -5.3739  -5.0703  -4.8917
    -4.7956  -3.8583   0.4948   0.7940   1.1481   1.1946   1.6053   1.7013
     2.4069   2.4227   2.7300   2.8659   2.9065   2.9684   2.9742   3.1181
     3.5566   3.6182   3.6978   3.8179   3.9487   3.9520   4.1705   4.6452
     4.9330   5.3986   5.7602   5.8049   5.9649   6.1624   6.5279   6.5885
     6.9545   7.1832

          k =-2.0325 0.0000 0.1485 ( 36456 PWs)   bands (ev):

   -44.1446 -44.1446 -22.2802 -22.2802 -22.1810 -22.1810 -22.0687 -22.0686
    -7.6482  -7.3644  -6.9836  -6.8588  -6.3965  -5.6934  -4.9446  -4.8196
    -4.6692  -3.9714   0.5276   0.9992   1.0399   1.1992   1.2708   2.0335
     2.1948   2.4367   2.6435   2.8510   2.9037   2.9129   2.9696   3.3633
     3.5741   3.7065   3.7128   3.8919   3.9525   4.0079   4.1024   4.6541
     4.8185   5.0041   5.8597   5.9838   6.0775   6.0892   6.4993   6.7561
     6.7865   7.1514

          k =-2.0325 0.0000-0.2971 ( 36460 PWs)   bands (ev):

   -44.1446 -44.1446 -22.2802 -22.2802 -22.1810 -22.1810 -22.0687 -22.0687
    -7.5370  -7.5370  -6.8996  -6.8996  -6.0926  -6.0926  -4.8778  -4.8778
    -4.2724  -4.2724   0.7200   0.7200   1.2117   1.2117   1.4636   1.4636
     2.5218   2.5218   2.6604   2.6604   2.9527   2.9527   3.0131   3.0131
     3.8135   3.8135   3.9123   3.9123   3.9389   3.9389   4.3904   4.3904
     4.6978   4.6978   5.9131   5.9131   6.3226   6.3226   6.4036   6.4036
     7.0468   7.0468

     the Fermi energy is     5.4062 ev

!    total energy              =   -4240.94877733 Ry

     total all-electron energy =   -150287.642472 Ry
     estimated scf accuracy    <          1.8E-11 Ry
     smearing contrib. (-TS)   =      -0.00002465 Ry
     internal energy E=F+TS    =   -4240.94875268 Ry

     The total energy is F=E-TS. E is the sum of the following terms:
     one-electron contribution =    -165.88657119 Ry
     hartree contribution      =     116.42022384 Ry
     xc contribution           =    -201.45169657 Ry
     ewald contribution        =    -222.51755456 Ry
     one-center paw contrib.   =   -3767.51315420 Ry

     convergence has been achieved in  19 iterations

     Forces acting on atoms (cartesian axes, Ry/au):

     atom    1 type  1   force =     0.00000000   -0.01058199    0.00000000
     atom    2 type  1   force =     0.00000000    0.01058199    0.00000000
     atom    3 type  2   force =     0.00000000    0.00038576    0.00000000
     atom    4 type  2   force =     0.00000000   -0.00038576    0.00000000
     atom    5 type  2   force =     0.00000000    0.00223377    0.00050920
     atom    6 type  2   force =     0.00000000   -0.00223377   -0.00050920
     atom    7 type  2   force =     0.00000000    0.00223377   -0.00050920
     atom    8 type  2   force =     0.00000000   -0.00223377    0.00050920
     atom    9 type  2   force =     0.00000000    0.01288035    0.01220929
     atom   10 type  2   force =     0.00000000   -0.01288035   -0.01220929
     atom   11 type  2   force =    -0.00000000    0.01288035   -0.01220929
     atom   12 type  2   force =     0.00000000   -0.01288035    0.01220929

     Total force =     0.038796     Total SCF correction =     0.000006


     Computing stress (Cartesian axis) and pressure

          total   stress  (Ry/bohr**3)                   (kbar)     P=       -3.08
  -0.00001800   0.00000000   0.00000000           -2.65        0.00        0.00
   0.00000000  -0.00001889   0.00000000            0.00       -2.78        0.00
   0.00000000   0.00000000  -0.00002589            0.00        0.00       -3.81

 
     init_run     :     35.17s CPU     36.14s WALL (       1 calls)
     electrons    :   1845.80s CPU   1865.38s WALL (       1 calls)
     forces       :      7.09s CPU      7.31s WALL (       1 calls)
     stress       :     44.62s CPU     45.27s WALL (       1 calls)

     Called by init_run:
     wfcinit      :     30.15s CPU     30.39s WALL (       1 calls)
     potinit      :      1.51s CPU      1.57s WALL (       1 calls)
     hinit0       :      1.75s CPU      2.12s WALL (       1 calls)

     Called by electrons:
     c_bands      :   1503.10s CPU   1511.44s WALL (      20 calls)
     sum_band     :    305.12s CPU    311.61s WALL (      20 calls)
     v_of_rho     :      9.33s CPU     10.02s WALL (      20 calls)
     newd         :     19.95s CPU     24.23s WALL (      20 calls)
     PAW_pot      :      7.51s CPU      7.52s WALL (      20 calls)
     mix_rho      :      1.77s CPU      1.80s WALL (      20 calls)

     Called by c_bands:
     init_us_2    :     14.93s CPU     14.99s WALL (    2709 calls)
     cegterg      :   1417.78s CPU   1425.59s WALL (    1260 calls)

     Called by *egterg:
     cdiaghg      :     32.10s CPU     32.24s WALL (    9237 calls)
     h_psi        :   1214.80s CPU   1222.21s WALL (    9363 calls)
     s_psi        :     57.70s CPU     57.80s WALL (    9363 calls)
     g_psi        :      2.46s CPU      2.48s WALL (    8040 calls)

     Called by h_psi:
     h_psi:calbec :     48.87s CPU     48.97s WALL (    9363 calls)
     vloc_psi     :   1104.03s CPU   1111.14s WALL (    9363 calls)
     add_vuspsi   :     57.55s CPU     57.67s WALL (    9363 calls)

     General routines
     calbec       :     63.13s CPU     63.27s WALL (   10938 calls)
     fft          :      8.44s CPU      8.97s WALL (     284 calls)
     ffts         :      0.21s CPU      0.22s WALL (      40 calls)
     fftw         :   1092.16s CPU   1099.15s WALL (  463344 calls)
     interpolate  :      0.71s CPU      0.72s WALL (      20 calls)
 
     Parallel routines
     fft_scatt_xy :    295.39s CPU    297.26s WALL (  463668 calls)
     fft_scatt_yz :    198.11s CPU    199.82s WALL (  463668 calls)
 
     PWSCF        :  32m12.99s CPU  32m37.77s WALL

 
   This run was terminated on:  15:19: 5  19Nov2021            

=------------------------------------------------------------------------------=
   JOB DONE.
=------------------------------------------------------------------------------=
