
     Program PWSCF v.6.7MaX starts on 19Nov2021 at 14:46:30 

     This program is part of the open-source Quantum ESPRESSO suite
     for quantum simulation of materials; please cite
         "P. Giannozzi et al., J. Phys.:Condens. Matter 21 395502 (2009);
         "P. Giannozzi et al., J. Phys.:Condens. Matter 29 465901 (2017);
          URL http://www.quantum-espresso.org", 
     in publications or presentations arising from this work. More details at
     http://www.quantum-espresso.org/quote

     Parallel version (MPI), running on    10 processors

     MPI processes distributed on     1 nodes
     R & G space division:  proc/nbgrp/npool/nimage =      10
     Waiting for input...
     Reading input from standard input

     Current dimensions of program PWSCF are:
     Max number of different atomic species (ntypx) = 10
     Max number of k-points (npk) =  40000
     Max angular momentum in pseudopotentials (lmaxx) =  3
     file Zr.pbe-spn-kjpaw_psl.1.0.0.UPF: wavefunction(s)  4S 4P renormalized
     file Te.pbe-n-kjpaw_psl.1.0.0.UPF: wavefunction(s)  5S 5P renormalized

     Subspace diagonalization in iterative solution of the eigenvalue problem:
     a serial algorithm will be used

     Message from routine setup:
     using ibrav=0 with symmetry is DISCOURAGED, use correct ibrav instead
 
     Parallelization info
     --------------------
     sticks:   dense  smooth     PW     G-vecs:    dense   smooth      PW
     Min         734     293     87               115340    29174    4753
     Max         735     295     88               115345    29176    4760
     Sum        7345    2937    873              1153415   291749   47557
 


     bravais-lattice index     =            0
     lattice parameter (alat)  =      15.5510  a.u.
     unit-cell volume          =    3018.5011 (a.u.)^3
     number of atoms/cell      =           12
     number of atomic types    =            2
     number of electrons       =        84.00
     number of Kohn-Sham states=           50
     kinetic-energy cutoff     =      80.0000  Ry
     charge density cutoff     =     800.0000  Ry
     scf convergence threshold =      1.0E-10
     mixing beta               =       0.7000
     number of iterations used =            8  plain     mixing
     Exchange-correlation= SLA  PW   PBX  PBC
                           (   1   4   3   4   0   0   0)

     celldm(1)=  15.551040  celldm(2)=   0.000000  celldm(3)=   0.000000
     celldm(4)=   0.000000  celldm(5)=   0.000000  celldm(6)=   0.000000

     crystal axes: (cart. coord. in units of alat)
               a(1) = (   0.246007  -0.969268   0.000000 )  
               a(2) = (   0.246007   0.969268   0.000000 )  
               a(3) = (   0.000000   0.000000   1.683031 )  

     reciprocal axes: (cart. coord. in units 2 pi/alat)
               b(1) = (  2.032465 -0.515853  0.000000 )  
               b(2) = (  2.032465  0.515853  0.000000 )  
               b(3) = (  0.000000  0.000000  0.594166 )  


     PseudoPot. # 1 for Zr read from file:
     pseudo/Zr.pbe-spn-kjpaw_psl.1.0.0.UPF
     MD5 check sum: 02112c41713a0468aff2bb39ef194e36
     Pseudo is Projector augmented-wave + core cor, Zval = 12.0
     Generated using &quot;atomic&quot; code by A. Dal Corso  v.6.2.2
     Shape of augmentation charge: PSQ
     Using radial grid of 1225 points,  6 beta functions with: 
                l(1) =   0
                l(2) =   0
                l(3) =   1
                l(4) =   1
                l(5) =   2
                l(6) =   2
     Q(r) pseudized with 0 coefficients 


     PseudoPot. # 2 for Te read from file:
     pseudo/Te.pbe-n-kjpaw_psl.1.0.0.UPF
     MD5 check sum: 66247bff2bd9dbf220fbb0bf5ab56e9d
     Pseudo is Projector augmented-wave + core cor, Zval =  6.0
     Generated using &quot;atomic&quot; code by A. Dal Corso  v.6.3
     Shape of augmentation charge: PSQ
     Using radial grid of 1245 points,  6 beta functions with: 
                l(1) =   0
                l(2) =   0
                l(3) =   1
                l(4) =   1
                l(5) =   2
                l(6) =   2
     Q(r) pseudized with 0 coefficients 


     atomic species   valence    mass     pseudopotential
        Zr            12.00    91.22000     Zr( 1.00)
        Te             6.00   127.60000     Te( 1.00)

      8 Sym. Ops., with inversion, found ( 4 have fractional translation)



   Cartesian axes

     site n.     atom                  positions (alat units)
         1           Zr  tau(   1) = (   0.0000000   0.6124529   0.4207578  )
         2           Zr  tau(   2) = (   0.2460067   0.3568152   1.2622733  )
         3           Te  tau(   3) = (   0.2460067   0.3343860   0.4207578  )
         4           Te  tau(   4) = (   0.0000000   0.6348822   1.2622733  )
         5           Te  tau(   5) = (   0.2460067   0.8067097   0.2499364  )
         6           Te  tau(   6) = (   0.0000000   0.1625584   1.4330947  )
         7           Te  tau(   7) = (   0.2460067   0.8067097   0.5915792  )
         8           Te  tau(   8) = (   0.0000000   0.1625584   1.0914519  )
         9           Te  tau(   9) = (   0.0000000   0.4028998   0.7194411  )
        10           Te  tau(  10) = (   0.2460067   0.5663683   0.9635900  )
        11           Te  tau(  11) = (   0.0000000   0.4028998   0.1220744  )
        12           Te  tau(  12) = (   0.2460067   0.5663683   1.5609566  )

     number of k points=    63  Methfessel-Paxton smearing, width (Ry)=  0.0030
                       cart. coord. in units 2pi/alat
        k(    1) = (   0.0000000   0.0000000   0.0000000), wk =   0.0078125
        k(    2) = (   0.0000000   0.0000000   0.1485415), wk =   0.0156250
        k(    3) = (   0.0000000   0.0000000  -0.2970830), wk =   0.0078125
        k(    4) = (   0.2540581   0.0644816   0.0000000), wk =   0.0312500
        k(    5) = (   0.2540581   0.0644816   0.1485415), wk =   0.0625000
        k(    6) = (   0.2540581   0.0644816  -0.2970830), wk =   0.0312500
        k(    7) = (   0.5081162   0.1289633   0.0000000), wk =   0.0312500
        k(    8) = (   0.5081162   0.1289633   0.1485415), wk =   0.0625000
        k(    9) = (   0.5081162   0.1289633  -0.2970830), wk =   0.0312500
        k(   10) = (   0.7621743   0.1934449   0.0000000), wk =   0.0312500
        k(   11) = (   0.7621743   0.1934449   0.1485415), wk =   0.0625000
        k(   12) = (   0.7621743   0.1934449  -0.2970830), wk =   0.0312500
        k(   13) = (  -1.0162324  -0.2579266   0.0000000), wk =   0.0156250
        k(   14) = (  -1.0162324  -0.2579266   0.1485415), wk =   0.0312500
        k(   15) = (  -1.0162324  -0.2579266  -0.2970830), wk =   0.0156250
        k(   16) = (   0.5081162   0.0000000   0.0000000), wk =   0.0156250
        k(   17) = (   0.5081162   0.0000000   0.1485415), wk =   0.0312500
        k(   18) = (   0.5081162   0.0000000  -0.2970830), wk =   0.0156250
        k(   19) = (   0.7621743   0.0644816   0.0000000), wk =   0.0312500
        k(   20) = (   0.7621743   0.0644816   0.1485415), wk =   0.0625000
        k(   21) = (   0.7621743   0.0644816  -0.2970830), wk =   0.0312500
        k(   22) = (   1.0162324   0.1289633   0.0000000), wk =   0.0312500
        k(   23) = (   1.0162324   0.1289633   0.1485415), wk =   0.0625000
        k(   24) = (   1.0162324   0.1289633  -0.2970830), wk =   0.0312500
        k(   25) = (  -0.7621743  -0.3224082   0.0000000), wk =   0.0312500
        k(   26) = (  -0.7621743  -0.3224082   0.1485415), wk =   0.0625000
        k(   27) = (  -0.7621743  -0.3224082  -0.2970830), wk =   0.0312500
        k(   28) = (  -0.5081162  -0.2579266   0.0000000), wk =   0.0312500
        k(   29) = (  -0.5081162  -0.2579266   0.1485415), wk =   0.0625000
        k(   30) = (  -0.5081162  -0.2579266  -0.2970830), wk =   0.0312500
        k(   31) = (  -0.2540581  -0.1934449   0.0000000), wk =   0.0312500
        k(   32) = (  -0.2540581  -0.1934449   0.1485415), wk =   0.0625000
        k(   33) = (  -0.2540581  -0.1934449  -0.2970830), wk =   0.0312500
        k(   34) = (   0.0000000  -0.1289633   0.0000000), wk =   0.0156250
        k(   35) = (   0.0000000  -0.1289633   0.1485415), wk =   0.0312500
        k(   36) = (   0.0000000  -0.1289633  -0.2970830), wk =   0.0156250
        k(   37) = (   1.0162324   0.0000000   0.0000000), wk =   0.0156250
        k(   38) = (   1.0162324   0.0000000   0.1485415), wk =   0.0312500
        k(   39) = (   1.0162324   0.0000000  -0.2970830), wk =   0.0156250
        k(   40) = (   1.2702905   0.0644816   0.0000000), wk =   0.0312500
        k(   41) = (   1.2702905   0.0644816   0.1485415), wk =   0.0625000
        k(   42) = (   1.2702905   0.0644816  -0.2970830), wk =   0.0312500
        k(   43) = (  -0.5081162  -0.3868899   0.0000000), wk =   0.0312500
        k(   44) = (  -0.5081162  -0.3868899   0.1485415), wk =   0.0625000
        k(   45) = (  -0.5081162  -0.3868899  -0.2970830), wk =   0.0312500
        k(   46) = (  -0.2540581  -0.3224082   0.0000000), wk =   0.0312500
        k(   47) = (  -0.2540581  -0.3224082   0.1485415), wk =   0.0625000
        k(   48) = (  -0.2540581  -0.3224082  -0.2970830), wk =   0.0312500
        k(   49) = (   0.0000000  -0.2579266   0.0000000), wk =   0.0156250
        k(   50) = (   0.0000000  -0.2579266   0.1485415), wk =   0.0312500
        k(   51) = (   0.0000000  -0.2579266  -0.2970830), wk =   0.0156250
        k(   52) = (   1.5243485   0.0000000   0.0000000), wk =   0.0156250
        k(   53) = (   1.5243485   0.0000000   0.1485415), wk =   0.0312500
        k(   54) = (   1.5243485   0.0000000  -0.2970830), wk =   0.0156250
        k(   55) = (  -0.2540581  -0.4513715   0.0000000), wk =   0.0312500
        k(   56) = (  -0.2540581  -0.4513715   0.1485415), wk =   0.0625000
        k(   57) = (  -0.2540581  -0.4513715  -0.2970830), wk =   0.0312500
        k(   58) = (   0.0000000  -0.3868899   0.0000000), wk =   0.0156250
        k(   59) = (   0.0000000  -0.3868899   0.1485415), wk =   0.0312500
        k(   60) = (   0.0000000  -0.3868899  -0.2970830), wk =   0.0156250
        k(   61) = (  -2.0324647   0.0000000   0.0000000), wk =   0.0078125
        k(   62) = (  -2.0324647   0.0000000   0.1485415), wk =   0.0156250
        k(   63) = (  -2.0324647   0.0000000  -0.2970830), wk =   0.0078125

     Dense  grid:  1153415 G-vectors     FFT dimensions: ( 144, 144, 240)

     Smooth grid:   291749 G-vectors     FFT dimensions: (  90,  90, 150)

     Estimated max dynamical RAM per process >     657.19 MB

     Estimated total dynamical RAM >       6.42 GB

     Initial potential from superposition of free atoms

     starting charge   83.99353, renormalised to   84.00000
     Starting wfcs are   66 randomized atomic wfcs
     Checking if some PAW data can be deallocated... 

     total cpu time spent up to now is       39.1 secs

     Self-consistent Calculation

     iteration #  1     ecut=    80.00 Ry     beta= 0.70
     Davidson diagonalization with overlap
     ethr =  1.00E-02,  avg # of iterations =  2.0

     Threshold (ethr) on eigenvalues was too large:
     Diagonalizing with lowered threshold

     Davidson diagonalization with overlap
     ethr =  3.71E-04,  avg # of iterations =  4.1

     total cpu time spent up to now is      199.8 secs

     total energy              =   -4240.71257978 Ry
     estimated scf accuracy    <       0.42446218 Ry

     iteration #  2     ecut=    80.00 Ry     beta= 0.70
     Davidson diagonalization with overlap
     ethr =  5.05E-04,  avg # of iterations =  7.5

     total cpu time spent up to now is      311.5 secs

     total energy              =   -4240.61959079 Ry
     estimated scf accuracy    <       2.17343115 Ry

     iteration #  3     ecut=    80.00 Ry     beta= 0.70
     Davidson diagonalization with overlap
     ethr =  5.05E-04,  avg # of iterations =  5.1

     total cpu time spent up to now is      406.8 secs

     total energy              =   -4240.90819581 Ry
     estimated scf accuracy    <       0.02335426 Ry

     iteration #  4     ecut=    80.00 Ry     beta= 0.70
     Davidson diagonalization with overlap
     c_bands:  2 eigenvalues not converged
     c_bands:  2 eigenvalues not converged
     c_bands:  1 eigenvalues not converged
     c_bands:  1 eigenvalues not converged
     c_bands:  1 eigenvalues not converged
     c_bands:  1 eigenvalues not converged
     c_bands:  1 eigenvalues not converged
     c_bands:  1 eigenvalues not converged
     c_bands:  1 eigenvalues not converged
     ethr =  2.78E-05,  avg # of iterations = 15.9

     total cpu time spent up to now is      568.8 secs

     total energy              =   -4240.92866830 Ry
     estimated scf accuracy    <       0.10942401 Ry

     iteration #  5     ecut=    80.00 Ry     beta= 0.70
     Davidson diagonalization with overlap
     ethr =  2.78E-05,  avg # of iterations =  5.4

     total cpu time spent up to now is      653.4 secs

     total energy              =   -4240.93040058 Ry
     estimated scf accuracy    <       0.02606151 Ry

     iteration #  6     ecut=    80.00 Ry     beta= 0.70
     Davidson diagonalization with overlap
     ethr =  2.78E-05,  avg # of iterations =  2.9

     total cpu time spent up to now is      727.3 secs

     total energy              =   -4240.93184488 Ry
     estimated scf accuracy    <       0.00330407 Ry

     iteration #  7     ecut=    80.00 Ry     beta= 0.70
     Davidson diagonalization with overlap
     c_bands:  2 eigenvalues not converged
     c_bands:  1 eigenvalues not converged
     c_bands:  1 eigenvalues not converged
     ethr =  3.93E-06,  avg # of iterations = 13.2

     total cpu time spent up to now is      854.1 secs

     total energy              =   -4240.93371238 Ry
     estimated scf accuracy    <       0.00278962 Ry

     iteration #  8     ecut=    80.00 Ry     beta= 0.70
     Davidson diagonalization with overlap
     c_bands:  1 eigenvalues not converged
     ethr =  3.32E-06,  avg # of iterations =  2.2

     total cpu time spent up to now is      922.9 secs

     total energy              =   -4240.93371453 Ry
     estimated scf accuracy    <       0.00063937 Ry

     iteration #  9     ecut=    80.00 Ry     beta= 0.70
     Davidson diagonalization with overlap
     ethr =  7.61E-07,  avg # of iterations =  5.8

     total cpu time spent up to now is     1005.0 secs

     total energy              =   -4240.93383700 Ry
     estimated scf accuracy    <       0.00001291 Ry

     iteration # 10     ecut=    80.00 Ry     beta= 0.70
     Davidson diagonalization with overlap
     c_bands:  1 eigenvalues not converged
     ethr =  1.54E-08,  avg # of iterations = 10.3

     total cpu time spent up to now is     1133.2 secs

     total energy              =   -4240.93386196 Ry
     estimated scf accuracy    <       0.00001431 Ry

     iteration # 11     ecut=    80.00 Ry     beta= 0.70
     Davidson diagonalization with overlap
     ethr =  1.54E-08,  avg # of iterations =  2.6

     total cpu time spent up to now is     1206.6 secs

     total energy              =   -4240.93386367 Ry
     estimated scf accuracy    <       0.00000033 Ry

     iteration # 12     ecut=    80.00 Ry     beta= 0.70
     Davidson diagonalization with overlap
     c_bands:  1 eigenvalues not converged
     ethr =  3.95E-10,  avg # of iterations =  9.8

     total cpu time spent up to now is     1337.8 secs

     total energy              =   -4240.93386402 Ry
     estimated scf accuracy    <       0.00000098 Ry

     iteration # 13     ecut=    80.00 Ry     beta= 0.70
     Davidson diagonalization with overlap
     ethr =  3.95E-10,  avg # of iterations =  3.8

     total cpu time spent up to now is     1419.6 secs

     total energy              =   -4240.93386409 Ry
     estimated scf accuracy    <       0.00000007 Ry

     iteration # 14     ecut=    80.00 Ry     beta= 0.70
     Davidson diagonalization with overlap
     c_bands:  1 eigenvalues not converged
     ethr =  8.48E-11,  avg # of iterations =  6.2

     total cpu time spent up to now is     1518.2 secs

     total energy              =   -4240.93386412 Ry
     estimated scf accuracy    <       0.00000003 Ry

     iteration # 15     ecut=    80.00 Ry     beta= 0.70
     Davidson diagonalization with overlap
     c_bands:  1 eigenvalues not converged
     ethr =  4.01E-11,  avg # of iterations =  1.8

     total cpu time spent up to now is     1586.1 secs

     total energy              =   -4240.93386412 Ry
     estimated scf accuracy    <          6.0E-09 Ry

     iteration # 16     ecut=    80.00 Ry     beta= 0.70
     Davidson diagonalization with overlap
     ethr =  7.18E-12,  avg # of iterations =  7.6

     total cpu time spent up to now is     1690.0 secs

     total energy              =   -4240.93386412 Ry
     estimated scf accuracy    <          4.3E-09 Ry

     iteration # 17     ecut=    80.00 Ry     beta= 0.70
     Davidson diagonalization with overlap
     ethr =  5.10E-12,  avg # of iterations =  1.7

     total cpu time spent up to now is     1757.6 secs

     total energy              =   -4240.93386412 Ry
     estimated scf accuracy    <          1.2E-09 Ry

     iteration # 18     ecut=    80.00 Ry     beta= 0.70
     Davidson diagonalization with overlap
     ethr =  1.48E-12,  avg # of iterations =  4.6

     total cpu time spent up to now is     1832.8 secs

     total energy              =   -4240.93386412 Ry
     estimated scf accuracy    <          1.2E-10 Ry

     iteration # 19     ecut=    80.00 Ry     beta= 0.70
     Davidson diagonalization with overlap
     ethr =  1.45E-13,  avg # of iterations =  6.2

     total cpu time spent up to now is     1931.4 secs

     End of self-consistent calculation

          k = 0.0000 0.0000 0.0000 ( 36359 PWs)   bands (ev):

   -44.1578 -44.1578 -22.3027 -22.3027 -22.1972 -22.1972 -22.0784 -22.0783
    -7.6382  -7.1816  -6.8993  -6.7674  -6.6049  -5.2902  -5.1457  -4.9174
    -4.8604  -3.8670   0.4644   0.6651   0.7866   1.0463   1.4811   1.6154
     2.4132   2.5215   2.5917   2.9944   3.0566   3.0712   3.1639   3.4991
     3.5387   3.5684   3.8533   4.0376   4.0801   4.2781   4.3157   4.6210
     5.2083   5.5504   5.5572   5.5774   5.8595   6.0640   6.4304   6.7787
     6.9317   7.3066

          k = 0.0000 0.0000 0.1485 ( 36415 PWs)   bands (ev):

   -44.1578 -44.1578 -22.3027 -22.3027 -22.1972 -22.1972 -22.0784 -22.0783
    -7.5994  -7.3135  -6.8327  -6.7737  -6.4666  -5.6901  -4.9409  -4.8729
    -4.7085  -3.9830   0.5009   0.7032   0.9084   1.0600   1.0600   2.0509
     2.1263   2.4359   2.5618   3.0612   3.0700   3.1248   3.3051   3.3610
     3.6723   3.6798   3.8237   4.0269   4.0351   4.2977   4.3271   4.6409
     4.9574   5.0654   5.6962   5.9112   6.0556   6.0841   6.5790   6.7167
     6.7699   7.2885

          k = 0.0000 0.0000-0.2971 ( 36410 PWs)   bands (ev):

   -44.1578 -44.1578 -22.3027 -22.3027 -22.1972 -22.1972 -22.0784 -22.0784
    -7.4859  -7.4859  -6.7923  -6.7923  -6.1213  -6.1213  -4.9035  -4.9035
    -4.2923  -4.2923   0.6750   0.6750   0.8417   0.8417   1.4696   1.4696
     2.4951   2.4951   2.7042   2.7042   3.0803   3.0803   3.3364   3.3364
     3.8159   3.8159   3.8863   3.8863   4.3131   4.3131   4.4266   4.4266
     4.7310   4.7310   5.9604   5.9604   6.2539   6.2539   6.3805   6.3805
     7.1800   7.1800

          k = 0.2541 0.0645 0.0000 ( 36396 PWs)   bands (ev):

   -44.1574 -44.1574 -22.3007 -22.3007 -22.2073 -22.2073 -22.0771 -22.0770
    -7.5247  -7.0946  -6.7990  -6.7219  -6.5475  -5.2592  -5.1292  -4.8770
    -4.8193  -4.0028   0.5520   0.8018   0.9247   1.1639   1.2595   1.5128
     1.9441   2.1590   2.2119   2.5180   2.5976   2.9822   3.5169   3.6330
     3.6563   3.6907   3.7275   3.8174   4.0451   4.1180   4.2008   4.2710
     4.4587   4.7385   5.6625   6.0031   6.3067   6.5391   6.6137   6.8313
     7.0011   7.1436

          k = 0.2541 0.0645 0.1485 ( 36423 PWs)   bands (ev):

   -44.1574 -44.1574 -22.3007 -22.3007 -22.2073 -22.2073 -22.0771 -22.0770
    -7.4869  -7.2127  -6.7660  -6.7273  -6.3926  -5.6348  -4.9186  -4.8339
    -4.7093  -4.0958   0.5762   0.8426   0.9765   1.0029   1.1360   1.6233
     1.8768   2.2971   2.5112   2.5436   2.5864   2.9112   3.2443   3.3021
     3.6342   3.6823   3.8040   3.8774   3.9913   4.0801   4.2158   4.2763
     4.7024   5.0749   5.7880   5.8114   6.2249   6.2787   6.4875   6.6631
     7.2706   7.2774

          k = 0.2541 0.0645-0.2971 ( 36436 PWs)   bands (ev):

   -44.1574 -44.1574 -22.3007 -22.3007 -22.2073 -22.2073 -22.0771 -22.0771
    -7.3769  -7.3769  -6.7419  -6.7419  -6.0486  -6.0486  -4.8700  -4.8700
    -4.3527  -4.3527   0.7079   0.7079   0.9469   0.9469   1.3140   1.3140
     2.2747   2.2747   2.6217   2.6217   2.7238   2.7238   3.0795   3.0795
     3.5796   3.5796   3.8423   3.8423   4.0113   4.0113   4.2709   4.2709
     5.2150   5.2150   5.7351   5.7351   6.0638   6.0638   6.4797   6.4797
     7.4331   7.4332

          k = 0.5081 0.1290 0.0000 ( 36499 PWs)   bands (ev):

   -44.1565 -44.1565 -22.2960 -22.2960 -22.2315 -22.2315 -22.0740 -22.0740
    -7.2083  -6.8891  -6.5926  -6.5121  -6.3572  -5.2125  -5.1304  -4.7707
    -4.7178  -4.4142   0.4933   0.7417   0.7774   1.1699   1.3225   1.4931
     1.6550   1.8210   1.9647   2.1730   2.1773   2.2645   2.4967   3.2008
     3.3296   3.4018   3.4446   3.5552   3.7668   3.8390   3.9837   4.1522
     4.6841   5.3439   5.3679   5.8266   5.9035   6.5298   6.5433   6.8222
     7.3635   7.5632

          k = 0.5081 0.1290 0.1485 ( 36476 PWs)   bands (ev):

   -44.1565 -44.1565 -22.2960 -22.2960 -22.2315 -22.2315 -22.0740 -22.0740
    -7.1750  -6.9563  -6.5959  -6.5741  -6.1681  -5.5037  -4.9326  -4.7465
    -4.7027  -4.4471   0.5062   0.7553   0.9137   1.0920   1.2091   1.4287
     1.4690   1.6853   2.0416   2.0642   2.3298   2.5680   2.8606   3.2355
     3.3184   3.3951   3.4661   3.5684   3.6245   3.7947   3.8487   4.2125
     4.4223   4.6077   5.9947   6.0617   6.2141   6.5404   6.5841   6.7049
     7.2111   7.4762

          k = 0.5081 0.1290-0.2971 ( 36466 PWs)   bands (ev):

   -44.1565 -44.1565 -22.2960 -22.2960 -22.2315 -22.2315 -22.0740 -22.0740
    -7.0812  -7.0812  -6.5971  -6.5971  -5.8508  -5.8508  -4.8181  -4.8181
    -4.5523  -4.5523   0.6215   0.6215   1.1027   1.1027   1.2659   1.2659
     1.3587   1.3587   2.0605   2.0605   2.7916   2.7916   3.0955   3.0955
     3.3159   3.3159   3.5416   3.5416   3.7094   3.7094   3.8495   3.8495
     4.3016   4.3016   6.2229   6.2229   6.5300   6.5300   6.7622   6.7622
     7.0828   7.0828

          k = 0.7622 0.1934 0.0000 ( 36521 PWs)   bands (ev):

   -44.1555 -44.1555 -22.2911 -22.2911 -22.2558 -22.2558 -22.0709 -22.0709
    -6.8270  -6.7132  -6.3279  -6.0864  -6.0004  -5.2814  -5.2724  -5.0496
    -4.6495  -4.6145   0.0018   0.3041   0.6647   1.1675   1.1675   1.2270
     1.4778   1.5878   1.9022   1.9421   2.2630   2.4426   2.5295   2.7290
     2.7521   3.2495   3.2785   3.3350   3.6445   3.6557   3.7793   3.8642
     4.0085   4.5687   5.7441   6.1443   6.2251   6.6473   6.7027   6.7943
     7.1846   7.5456

          k = 0.7622 0.1934 0.1485 ( 36503 PWs)   bands (ev):

   -44.1555 -44.1555 -22.2911 -22.2911 -22.2558 -22.2558 -22.0709 -22.0709
    -6.8098  -6.7284  -6.3208  -6.2031  -5.8324  -5.4150  -5.1908  -5.0708
    -4.6384  -4.6148   0.0801   0.4066   0.5503   0.9631   1.1733   1.2074
     1.4934   1.6522   1.7207   2.0905   2.1293   2.6479   2.6648   2.7958
     2.8590   3.1649   3.2730   3.3651   3.4585   3.6493   3.6900   3.8795
     4.0133   4.7864   5.3365   6.2201   6.5246   6.5609   6.7092   6.8875
     6.9593   7.4388

          k = 0.7622 0.1934-0.2971 ( 36522 PWs)   bands (ev):

   -44.1555 -44.1555 -22.2911 -22.2911 -22.2558 -22.2558 -22.0709 -22.0709
    -6.7682  -6.7682  -6.2878  -6.2878  -5.6120  -5.6120  -5.1236  -5.1236
    -4.6214  -4.6214   0.2855   0.2855   0.7169   0.7169   1.0664   1.0664
     1.5756   1.5756   1.9674   1.9674   2.3760   2.3760   2.7960   2.7960
     2.9897   2.9897   3.4163   3.4163   3.5625   3.5625   3.7774   3.7774
     4.2146   4.2146   5.9533   5.9533   6.3534   6.3534   6.7980   6.7980
     7.2806   7.2806

          k =-1.0162-0.2579 0.0000 ( 36506 PWs)   bands (ev):

   -44.1551 -44.1551 -22.2889 -22.2889 -22.2659 -22.2659 -22.0696 -22.0696
    -6.6792  -6.6590  -5.7645  -5.7547  -5.6297  -5.6158  -5.5743  -5.5734
    -4.5914  -4.5744   0.0959   0.1232   0.4468   0.4648   1.0135   1.0211
     1.4708   1.6772   2.2192   2.3314   2.3314   2.3351   2.7978   2.8345
     2.8395   2.9585   3.2541   3.2768   3.2924   3.5074   3.5737   3.6546
     3.8634   3.9028   6.3335   6.3656   6.4306   6.5164   6.9112   6.9726
     6.9812   6.9898

          k =-1.0162-0.2579 0.1485 ( 36506 PWs)   bands (ev):

   -44.1551 -44.1551 -22.2889 -22.2889 -22.2659 -22.2659 -22.0696 -22.0696
    -6.6756  -6.6613  -5.7623  -5.7533  -5.6713  -5.6676  -5.5266  -5.5218
    -4.5954  -4.5834   0.0110   0.0202   0.6590   0.6627   1.0380   1.0657
     1.4633   1.5707   1.9189   1.9788   2.3590   2.3685   2.7597   2.7704
     2.9558   2.9573   3.1927   3.2334   3.5299   3.5521   3.7075   3.7328
     4.1229   4.1319   5.8329   5.8393   6.3651   6.4363   6.8534   6.8937
     7.2067   7.2268

          k =-1.0162-0.2579-0.2971 ( 36528 PWs)   bands (ev):

   -44.1551 -44.1551 -22.2889 -22.2889 -22.2659 -22.2659 -22.0696 -22.0696
    -6.6679  -6.6679  -5.7549  -5.7549  -5.6966  -5.6966  -5.4949  -5.4949
    -4.5959  -4.5959  -0.0427  -0.0427   0.8920   0.8920   1.0836   1.0836
     1.4891   1.4891   1.6126   1.6126   2.3617   2.3617   2.7928   2.7928
     2.9259   2.9259   3.2227   3.2227   3.5771   3.5771   3.7673   3.7673
     4.6531   4.6531   5.2170   5.2170   6.3339   6.3339   6.8895   6.8895
     7.2700   7.2700

          k = 0.5081 0.0000 0.0000 ( 36503 PWs)   bands (ev):

   -44.1565 -44.1565 -22.2960 -22.2960 -22.2315 -22.2315 -22.0740 -22.0740
    -7.2146  -6.8920  -6.5848  -6.5134  -6.3522  -5.2135  -5.1267  -4.7670
    -4.7226  -4.4138   0.4916   0.7391   0.7843   1.1364   1.3177   1.4727
     1.6608   1.8258   1.9757   2.1361   2.1687   2.2515   2.5056   3.1820
     3.3351   3.3937   3.4991   3.5826   3.7743   3.8249   4.0203   4.1899
     4.6864   5.3498   5.3711   5.8600   5.8834   6.4904   6.4917   6.8574
     7.3930   7.5690

          k = 0.5081 0.0000 0.1485 ( 36453 PWs)   bands (ev):

   -44.1565 -44.1565 -22.2960 -22.2960 -22.2315 -22.2315 -22.0740 -22.0740
    -7.1813  -6.9610  -6.5874  -6.5696  -6.1677  -5.5047  -4.9261  -4.7482
    -4.7038  -4.4479   0.5039   0.7500   0.9200   1.0938   1.1793   1.4220
     1.4534   1.6828   2.0368   2.0657   2.3283   2.5420   2.8525   3.2215
     3.3126   3.4246   3.4876   3.5927   3.6183   3.8380   3.8476   4.2472
     4.4379   4.6102   5.9972   6.0790   6.2167   6.4891   6.5491   6.7351
     7.2373   7.4795

          k = 0.5081 0.0000-0.2971 ( 36452 PWs)   bands (ev):

   -44.1565 -44.1565 -22.2960 -22.2960 -22.2315 -22.2315 -22.0740 -22.0740
    -7.0871  -7.0871  -6.5895  -6.5895  -5.8519  -5.8519  -4.8138  -4.8138
    -4.5550  -4.5550   0.6169   0.6169   1.1033   1.1033   1.2930   1.2930
     1.3080   1.3080   2.0599   2.0599   2.7823   2.7823   3.0709   3.0709
     3.3092   3.3092   3.6020   3.6020   3.7140   3.7140   3.8530   3.8530
     4.3269   4.3269   6.2382   6.2382   6.4961   6.4961   6.7760   6.7760
     7.0849   7.0849

          k = 0.7622 0.0645 0.0000 ( 36505 PWs)   bands (ev):

   -44.1555 -44.1555 -22.2911 -22.2911 -22.2558 -22.2558 -22.0709 -22.0709
    -6.8365  -6.7117  -6.3183  -6.0892  -5.9993  -5.2821  -5.2671  -5.0493
    -4.6438  -4.6216  -0.0046   0.3159   0.6907   1.1565   1.2033   1.2407
     1.4334   1.5428   1.8794   1.9530   2.2113   2.4233   2.5141   2.7052
     2.7291   3.3043   3.3173   3.3378   3.5981   3.6646   3.8347   3.8896
     4.0270   4.6129   5.7428   6.1599   6.1868   6.6133   6.7503   6.7599
     7.2095   7.6780

          k = 0.7622 0.0645 0.1485 ( 36509 PWs)   bands (ev):

   -44.1555 -44.1555 -22.2911 -22.2911 -22.2558 -22.2558 -22.0709 -22.0709
    -6.8183  -6.7292  -6.3116  -6.2007  -5.8344  -5.4155  -5.1868  -5.0698
    -4.6345  -4.6198   0.0769   0.4142   0.5598   0.9876   1.1786   1.2130
     1.4540   1.6534   1.7396   2.0232   2.0526   2.6549   2.6587   2.7634
     2.8498   3.1647   3.3422   3.3873   3.4184   3.6681   3.7211   3.8968
     4.0621   4.7857   5.3639   6.2054   6.5267   6.5453   6.7270   6.8858
     6.9417   7.4573

          k = 0.7622 0.0645-0.2971 ( 36472 PWs)   bands (ev):

   -44.1555 -44.1555 -22.2911 -22.2911 -22.2558 -22.2558 -22.0709 -22.0709
    -6.7736  -6.7736  -6.2808  -6.2808  -5.6141  -5.6141  -5.1209  -5.1209
    -4.6219  -4.6219   0.2881   0.2881   0.7134   0.7134   1.0927   1.0927
     1.5709   1.5709   1.9148   1.9148   2.3404   2.3404   2.7870   2.7870
     2.9878   2.9878   3.4848   3.4848   3.5592   3.5592   3.7708   3.7708
     4.2396   4.2396   5.9769   5.9769   6.3549   6.3549   6.7631   6.7631
     7.3065   7.3065

          k = 1.0162 0.1290 0.0000 ( 36514 PWs)   bands (ev):

   -44.1551 -44.1551 -22.2889 -22.2889 -22.2659 -22.2659 -22.0696 -22.0696
    -6.6792  -6.6590  -5.7639  -5.7553  -5.6297  -5.6158  -5.5752  -5.5724
    -4.5914  -4.5744   0.0902   0.1291   0.4406   0.4711   1.0086   1.0279
     1.4757   1.6685   2.2237   2.3132   2.3267   2.3407   2.8006   2.8327
     2.8696   2.9526   3.2236   3.2971   3.3029   3.5116   3.5519   3.6642
     3.8488   3.9137   6.3318   6.3686   6.4259   6.5216   6.9201   6.9756
     6.9773   6.9920

          k = 1.0162 0.1290 0.1485 ( 36524 PWs)   bands (ev):

   -44.1551 -44.1551 -22.2889 -22.2889 -22.2659 -22.2659 -22.0696 -22.0696
    -6.6756  -6.6613  -5.7617  -5.7538  -5.6716  -5.6672  -5.5269  -5.5215
    -4.5953  -4.5834   0.0090   0.0218   0.6571   0.6653   1.0423   1.0626
     1.4674   1.5688   1.9206   1.9716   2.3510   2.3646   2.7166   2.8233
     2.9643   2.9795   3.1657   3.2364   3.5234   3.5841   3.6988   3.7068
     4.1192   4.1416   5.8213   5.8531   6.3625   6.4388   6.8603   6.8928
     7.2096   7.2240

          k = 1.0162 0.1290-0.2971 ( 36516 PWs)   bands (ev):

   -44.1551 -44.1551 -22.2889 -22.2889 -22.2659 -22.2659 -22.0696 -22.0696
    -6.6679  -6.6679  -5.7549  -5.7549  -5.6967  -5.6967  -5.4949  -5.4949
    -4.5959  -4.5959  -0.0428  -0.0428   0.8913   0.8913   1.0863   1.0863
     1.4878   1.4878   1.6138   1.6138   2.3513   2.3513   2.7754   2.7754
     2.9749   2.9749   3.2003   3.2003   3.5841   3.5841   3.7586   3.7586
     4.6534   4.6534   5.2188   5.2188   6.3336   6.3336   6.8920   6.8920
     7.2698   7.2698

          k =-0.7622-0.3224 0.0000 ( 36511 PWs)   bands (ev):

   -44.1555 -44.1555 -22.2911 -22.2911 -22.2558 -22.2558 -22.0709 -22.0709
    -6.8118  -6.7169  -6.3416  -6.0823  -6.0019  -5.2806  -5.2799  -5.0500
    -4.6544  -4.6077   0.0109   0.2878   0.6303   1.1417   1.1827   1.2072
     1.5003   1.6585   1.9287   1.9476   2.3479   2.4587   2.5531   2.7539
     2.7860   3.1603   3.2466   3.3639   3.5999   3.6548   3.7633   3.8315
     3.9761   4.4979   5.7463   6.1399   6.2688   6.6218   6.6991   6.8618
     7.1441   7.6803

          k =-0.7622-0.3224 0.1485 ( 36492 PWs)   bands (ev):

   -44.1555 -44.1555 -22.2911 -22.2911 -22.2558 -22.2558 -22.0709 -22.0709
    -6.7963  -6.7283  -6.3340  -6.2066  -5.8295  -5.4143  -5.1964  -5.0721
    -4.6416  -4.6100   0.0843   0.3975   0.5355   0.9363   1.1618   1.2076
     1.5499   1.6465   1.6960   2.1897   2.2395   2.6415   2.6748   2.8281
     2.8704   3.1755   3.1890   3.3480   3.4765   3.6229   3.6584   3.8501
     3.9321   4.7862   5.2998   6.2443   6.5056   6.5754   6.6989   6.9113
     6.9800   7.4072

          k =-0.7622-0.3224-0.2971 ( 36508 PWs)   bands (ev):

   -44.1555 -44.1555 -22.2911 -22.2911 -22.2558 -22.2558 -22.0709 -22.0709
    -6.7603  -6.7603  -6.2979  -6.2979  -5.6091  -5.6091  -5.1275  -5.1275
    -4.6208  -4.6208   0.2814   0.2814   0.7218   0.7218   1.0365   1.0365
     1.5798   1.5798   2.0301   2.0301   2.4421   2.4421   2.8128   2.8128
     2.9904   2.9904   3.3229   3.3229   3.5678   3.5678   3.7704   3.7704
     4.1805   4.1805   5.9219   5.9219   6.3497   6.3497   6.8575   6.8575
     7.2365   7.2365

          k =-0.5081-0.2579 0.0000 ( 36480 PWs)   bands (ev):

   -44.1565 -44.1565 -22.2960 -22.2960 -22.2315 -22.2315 -22.0740 -22.0740
    -7.1921  -6.8829  -6.6110  -6.5088  -6.3701  -5.2101  -5.1395  -4.7765
    -4.7093  -4.4152   0.4990   0.7413   0.7615   1.2663   1.3327   1.5451
     1.6463   1.8156   1.9404   2.2045   2.2390   2.2890   2.4792   3.2515
     3.3222   3.3283   3.4203   3.4590   3.7369   3.8474   3.9307   4.0762
     4.6758   5.3320   5.3540   5.7487   5.9550   6.6280   6.6635   6.7379
     7.2887   7.5522

          k =-0.5081-0.2579 0.1485 ( 36485 PWs)   bands (ev):

   -44.1565 -44.1565 -22.2960 -22.2960 -22.2315 -22.2315 -22.0740 -22.0740
    -7.1590  -6.9446  -6.6154  -6.5871  -6.1690  -5.5014  -4.9474  -4.7442
    -4.6993  -4.4452   0.5125   0.7633   0.8993   1.0880   1.2926   1.4323
     1.5257   1.6870   2.0538   2.0640   2.3324   2.6263   2.8788   3.2697
     3.2953   3.3323   3.4478   3.4764   3.6262   3.7550   3.8274   4.1385
     4.3769   4.6017   5.9682   6.0401   6.2094   6.6293   6.6589   6.6797
     7.1450   7.4710

          k =-0.5081-0.2579-0.2971 ( 36478 PWs)   bands (ev):

   -44.1565 -44.1565 -22.2960 -22.2960 -22.2315 -22.2315 -22.0740 -22.0740
    -7.0659  -7.0659  -6.6163  -6.6163  -5.8483  -5.8483  -4.8282  -4.8282
    -4.5461  -4.5461   0.6320   0.6320   1.1001   1.1001   1.2458   1.2458
     1.4443   1.4443   2.0609   2.0609   2.8159   2.8159   3.1595   3.1595
     3.3307   3.3307   3.3932   3.3932   3.6986   3.6986   3.8390   3.8390
     4.2384   4.2384   6.1844   6.1844   6.6014   6.6014   6.7377   6.7377
     7.0823   7.0823

          k =-0.2541-0.1934 0.0000 ( 36410 PWs)   bands (ev):

   -44.1574 -44.1574 -22.3007 -22.3007 -22.2073 -22.2073 -22.0771 -22.0770
    -7.5132  -7.0836  -6.7968  -6.7374  -6.5646  -5.2576  -5.1365  -4.8842
    -4.8104  -4.0039   0.5841   0.8766   0.9344   1.1877   1.2910   1.5138
     1.9653   2.1778   2.2175   2.4816   2.5756   3.0520   3.4075   3.5258
     3.5844   3.6857   3.7852   3.8065   3.9794   4.1148   4.1753   4.2360
     4.3992   4.7070   5.7106   6.0174   6.3455   6.5779   6.6018   6.8517
     6.9980   7.0686

          k =-0.2541-0.1934 0.1485 ( 36427 PWs)   bands (ev):

   -44.1574 -44.1574 -22.3007 -22.3007 -22.2073 -22.2073 -22.0771 -22.0770
    -7.4753  -7.2010  -6.7767  -6.7418  -6.3982  -5.6332  -4.9364  -4.8296
    -4.7026  -4.0956   0.6023   0.9019   1.0080   1.0390   1.1540   1.6405
     1.8777   2.2996   2.4987   2.5301   2.5932   2.9134   3.2440   3.3283
     3.5009   3.6370   3.7389   3.8810   3.9695   4.0644   4.1656   4.2236
     4.6837   5.0549   5.7813   5.8160   6.1923   6.3225   6.5699   6.6806
     7.2249   7.2715

          k =-0.2541-0.1934-0.2971 ( 36422 PWs)   bands (ev):

   -44.1574 -44.1574 -22.3007 -22.3007 -22.2073 -22.2073 -22.0771 -22.0771
    -7.3652  -7.3652  -6.7570  -6.7570  -6.0481  -6.0481  -4.8765  -4.8765
    -4.3495  -4.3495   0.7267   0.7267   1.0129   1.0129   1.3236   1.3236
     2.2734   2.2734   2.5856   2.5856   2.7405   2.7405   3.1114   3.1114
     3.4925   3.4925   3.7988   3.7988   4.0047   4.0047   4.2138   4.2138
     5.2073   5.2073   5.6968   5.6968   6.0522   6.0522   6.5692   6.5692
     7.4087   7.4089

          k = 0.0000-0.1290 0.0000 ( 36417 PWs)   bands (ev):

   -44.1578 -44.1578 -22.3027 -22.3027 -22.1972 -22.1972 -22.0784 -22.0783
    -7.6322  -7.1749  -6.8981  -6.7761  -6.6150  -5.2895  -5.1495  -4.9227
    -4.8544  -3.8676   0.4908   0.7075   0.7924   1.0498   1.5051   1.6256
     2.4170   2.5213   2.5987   3.0025   3.0513   3.1094   3.1618   3.4426
     3.4683   3.5578   3.7928   4.0167   4.0800   4.2255   4.2662   4.6225
     5.2010   5.5093   5.5764   5.5845   5.8724   6.1057   6.4829   6.7479
     6.9326   7.2881

          k = 0.0000-0.1290 0.1485 ( 36419 PWs)   bands (ev):

   -44.1578 -44.1578 -22.3027 -22.3027 -22.1972 -22.1972 -22.0784 -22.0783
    -7.5933  -7.3071  -6.8374  -6.7819  -6.4709  -5.6895  -4.9515  -4.8697
    -4.7049  -3.9830   0.5235   0.7456   0.9244   1.0528   1.0836   2.0597
     2.1412   2.4400   2.5682   3.0561   3.0938   3.1212   3.2605   3.3251
     3.6703   3.6714   3.7570   3.9790   4.0336   4.2515   4.2811   4.6424
     4.9555   5.0513   5.7033   5.9138   6.0667   6.0963   6.5675   6.7589
     6.7709   7.4390

          k = 0.0000-0.1290-0.2971 ( 36464 PWs)   bands (ev):

   -44.1578 -44.1578 -22.3027 -22.3027 -22.1972 -22.1972 -22.0784 -22.0784
    -7.4797  -7.4797  -6.8002  -6.8002  -6.1215  -6.1215  -4.9069  -4.9069
    -4.2907  -4.2907   0.7053   0.7053   0.8563   0.8563   1.4793   1.4793
     2.5003   2.5003   2.7147   2.7147   3.0757   3.0757   3.2957   3.2957
     3.7901   3.7901   3.8813   3.8813   4.2300   4.2300   4.4388   4.4388
     4.7318   4.7318   5.9450   5.9450   6.2775   6.2775   6.3818   6.3818
     7.1856   7.1856

          k = 1.0162 0.0000 0.0000 ( 36499 PWs)   bands (ev):

   -44.1551 -44.1551 -22.2889 -22.2889 -22.2659 -22.2659 -22.0696 -22.0696
    -6.6792  -6.6590  -5.7631  -5.7561  -5.6297  -5.6158  -5.5757  -5.5719
    -4.5914  -4.5744   0.0858   0.1336   0.4364   0.4755   1.0062   1.0322
     1.4813   1.6592   2.2296   2.2952   2.3244   2.3438   2.8056   2.8238
     2.9149   2.9358   3.2097   3.2988   3.3157   3.5100   3.5346   3.6782
     3.8312   3.9236   6.3304   6.3714   6.4215   6.5264   6.9308   6.9716
     6.9786   6.9943

          k = 1.0162 0.0000 0.1485 ( 36485 PWs)   bands (ev):

   -44.1551 -44.1551 -22.2889 -22.2889 -22.2659 -22.2659 -22.0696 -22.0696
    -6.6757  -6.6613  -5.7611  -5.7545  -5.6719  -5.6669  -5.5272  -5.5212
    -4.5953  -4.5834   0.0074   0.0230   0.6560   0.6670   1.0498   1.0562
     1.4719   1.5665   1.9229   1.9638   2.3449   2.3595   2.7015   2.8416
     2.9703   3.0265   3.1240   3.2379   3.5230   3.6362   3.6541   3.6910
     4.1176   4.1490   5.8160   5.8605   6.3601   6.4411   6.8684   6.8906
     7.2157   7.2180

          k = 1.0162 0.0000-0.2971 ( 36514 PWs)   bands (ev):

   -44.1551 -44.1551 -22.2889 -22.2889 -22.2659 -22.2659 -22.0696 -22.0696
    -6.6679  -6.6679  -5.7549  -5.7549  -5.6967  -5.6967  -5.4949  -5.4949
    -4.5959  -4.5959  -0.0430  -0.0430   0.8906   0.8906   1.0889   1.0889
     1.4865   1.4865   1.6151   1.6151   2.3412   2.3412   2.7637   2.7637
     3.0280   3.0280   3.1679   3.1679   3.5916   3.5916   3.7494   3.7494
     4.6537   4.6537   5.2206   5.2206   6.3333   6.3333   6.8945   6.8945
     7.2697   7.2697

          k = 1.2703 0.0645 0.0000 ( 36468 PWs)   bands (ev):

   -44.1555 -44.1555 -22.2911 -22.2911 -22.2558 -22.2558 -22.0709 -22.0709
    -6.7991  -6.7212  -6.3513  -6.0793  -6.0031  -5.2853  -5.2799  -5.0502
    -4.6569  -4.6040   0.0176   0.2767   0.6072   1.1345   1.1911   1.1932
     1.5035   1.7089   1.9204   1.9880   2.4106   2.4714   2.5712   2.7683
     2.8074   3.0788   3.2518   3.4365   3.5465   3.5508   3.8098   3.8202
     3.9498   4.4389   5.7481   6.1423   6.2992   6.5647   6.7391   6.9168
     7.1079   7.5569

          k = 1.2703 0.0645 0.1485 ( 36490 PWs)   bands (ev):

   -44.1555 -44.1555 -22.2911 -22.2911 -22.2558 -22.2558 -22.0709 -22.0709
    -6.7853  -6.7295  -6.3435  -6.2093  -5.8274  -5.4138  -5.2004  -5.0731
    -4.6432  -4.6073   0.0869   0.3922   0.5239   0.9212   1.1532   1.2102
     1.6082   1.6426   1.6595   2.2666   2.3179   2.6441   2.6806   2.8464
     2.8768   3.0932   3.2331   3.3546   3.4279   3.5862   3.7088   3.8102
     3.8564   4.7852   5.2752   6.2657   6.4744   6.5852   6.7032   6.9406
     6.9933   7.3806

          k = 1.2703 0.0645-0.2971 ( 36480 PWs)   bands (ev):

   -44.1555 -44.1555 -22.2911 -22.2911 -22.2558 -22.2558 -22.0709 -22.0709
    -6.7545  -6.7545  -6.3053  -6.3053  -5.6069  -5.6069  -5.1303  -5.1303
    -4.6203  -4.6203   0.2782   0.2782   0.7252   0.7252   1.0192   1.0192
     1.5825   1.5825   2.0645   2.0645   2.5008   2.5008   2.8436   2.8436
     2.9802   2.9802   3.2465   3.2465   3.5787   3.5787   3.7538   3.7538
     4.1577   4.1577   5.9010   5.9010   6.3464   6.3464   6.9107   6.9107
     7.1959   7.1959

          k =-0.5081-0.3869 0.0000 ( 36463 PWs)   bands (ev):

   -44.1565 -44.1565 -22.2960 -22.2960 -22.2315 -22.2315 -22.0740 -22.0740
    -7.1745  -6.8781  -6.6285  -6.5056  -6.3840  -5.2077  -5.1486  -4.7798
    -4.7032  -4.4162   0.5073   0.7322   0.7466   1.3417   1.4054   1.5884
     1.6320   1.8330   1.9021   2.2448   2.2692   2.2992   2.4804   3.1969
     3.3030   3.3373   3.3464   3.4631   3.7014   3.7594   3.9099   4.0618
     4.6651   5.3228   5.3261   5.6786   6.0120   6.6529   6.7401   6.7782
     7.2004   7.5582

          k =-0.5081-0.3869 0.1485 ( 36477 PWs)   bands (ev):

   -44.1565 -44.1565 -22.2960 -22.2960 -22.2315 -22.2315 -22.0740 -22.0740
    -7.1414  -6.9328  -6.6338  -6.6032  -6.1697  -5.4991  -4.9611  -4.7435
    -4.6953  -4.4433   0.5199   0.7652   0.8855   1.0841   1.4055   1.4369
     1.5762   1.6856   2.0671   2.0734   2.3266   2.6755   2.8980   3.1698
     3.3071   3.3304   3.3688   3.4798   3.6296   3.7246   3.7792   4.1024
     4.3125   4.5962   5.9145   6.0462   6.2070   6.5635   6.7620   6.7950
     7.0654   7.4772

          k =-0.5081-0.3869-0.2971 ( 36492 PWs)   bands (ev):

   -44.1565 -44.1565 -22.2960 -22.2960 -22.2315 -22.2315 -22.0740 -22.0740
    -7.0493  -7.0493  -6.6369  -6.6369  -5.8457  -5.8457  -4.8379  -4.8379
    -4.5403  -4.5403   0.6418   0.6418   1.0962   1.0962   1.2337   1.2337
     1.5374   1.5374   2.0574   2.0574   2.8416   2.8416   3.2109   3.2109
     3.2639   3.2639   3.3506   3.3506   3.6709   3.6709   3.8299   3.8299
     4.1728   4.1728   6.1462   6.1462   6.6280   6.6280   6.7519   6.7519
     7.0911   7.0911

          k =-0.2541-0.3224 0.0000 ( 36485 PWs)   bands (ev):

   -44.1574 -44.1574 -22.3007 -22.3007 -22.2073 -22.2073 -22.0771 -22.0770
    -7.4959  -7.0678  -6.7935  -6.7577  -6.5915  -5.2553  -5.1473  -4.8894
    -4.8023  -4.0054   0.6115   0.9489   1.0053   1.2369   1.3633   1.5123
     1.9990   2.2089   2.2200   2.3978   2.5181   3.1720   3.2502   3.3404
     3.5304   3.6944   3.7758   3.8104   3.9612   4.0538   4.1259   4.1957
     4.3933   4.6395   5.7872   6.0306   6.3783   6.5249   6.6866   6.8820
     6.9510   7.0067

          k =-0.2541-0.3224 0.1485 ( 36445 PWs)   bands (ev):

   -44.1574 -44.1574 -22.3007 -22.3007 -22.2073 -22.2073 -22.0771 -22.0770
    -7.4579  -7.1832  -6.7942  -6.7624  -6.4057  -5.6309  -4.9578  -4.8266
    -4.6938  -4.0952   0.6221   0.9524   1.0718   1.1219   1.2244   1.6659
     1.8840   2.2933   2.4166   2.5157   2.6077   2.9084   3.2575   3.3194
     3.3366   3.5083   3.7705   3.8786   3.9303   4.0569   4.0871   4.1454
     4.6835   5.0183   5.7677   5.8356   6.1798   6.3040   6.6735   6.7227
     7.1684   7.2638

          k =-0.2541-0.3224-0.2971 ( 36442 PWs)   bands (ev):

   -44.1574 -44.1574 -22.3007 -22.3007 -22.2073 -22.2073 -22.0771 -22.0771
    -7.3476  -7.3476  -6.7794  -6.7794  -6.0473  -6.0473  -4.8856  -4.8856
    -4.3451  -4.3451   0.7368   0.7368   1.1459   1.1459   1.3383   1.3383
     2.2662   2.2662   2.5173   2.5173   2.7554   2.7554   3.1694   3.1694
     3.3180   3.3180   3.7936   3.7936   4.0018   4.0018   4.1316   4.1316
     5.1997   5.1997   5.6567   5.6567   6.0222   6.0222   6.6770   6.6770
     7.3749   7.3751

          k = 0.0000-0.2579 0.0000 ( 36445 PWs)   bands (ev):

   -44.1578 -44.1578 -22.3027 -22.3027 -22.1972 -22.1972 -22.0784 -22.0783
    -7.6169  -7.1581  -6.8951  -6.7960  -6.6416  -5.2877  -5.1592  -4.9304
    -4.8448  -3.8692   0.5396   0.8069   0.8247   1.0888   1.5591   1.6493
     2.4265   2.5172   2.6165   3.0372   3.0381   3.1567   3.2091   3.2295
     3.2522   3.5318   3.7488   3.9934   4.0799   4.0846   4.1426   4.6263
     5.1837   5.4391   5.6018   5.6436   5.9039   6.1655   6.5828   6.6621
     6.9345   7.2486

          k = 0.0000-0.2579 0.1485 ( 36452 PWs)   bands (ev):

   -44.1578 -44.1578 -22.3027 -22.3027 -22.1972 -22.1972 -22.0784 -22.0783
    -7.5779  -7.2907  -6.8505  -6.8013  -6.4812  -5.6877  -4.9733  -4.8654
    -4.6966  -3.9828   0.5601   0.8545   0.9869   1.0795   1.1123   2.0830
     2.1743   2.4503   2.5843   3.0433   3.0867   3.1123   3.1574   3.1831
     3.6437   3.6512   3.6821   3.9288   4.0298   4.1314   4.1710   4.6462
     4.9508   5.0301   5.7282   5.9204   6.0873   6.1063   6.5338   6.7731
     6.8376   7.2352

          k = 0.0000-0.2579-0.2971 ( 36454 PWs)   bands (ev):

   -44.1578 -44.1578 -22.3027 -22.3027 -22.1972 -22.1972 -22.0784 -22.0784
    -7.4640  -7.4640  -6.8201  -6.8201  -6.1218  -6.1218  -4.9151  -4.9151
    -4.2870  -4.2870   0.7399   0.7399   0.9446   0.9446   1.5039   1.5039
     2.5131   2.5131   2.7311   2.7311   3.0641   3.0641   3.1453   3.1453
     3.7688   3.7688   3.8691   3.8691   4.0924   4.0924   4.4324   4.4324
     4.7337   4.7337   5.9116   5.9116   6.3151   6.3151   6.3853   6.3853
     7.1774   7.1774

          k = 1.5243 0.0000 0.0000 ( 36439 PWs)   bands (ev):

   -44.1565 -44.1564 -22.2960 -22.2960 -22.2315 -22.2315 -22.0740 -22.0740
    -7.1666  -6.8767  -6.6354  -6.5042  -6.3900  -5.2067  -5.1525  -4.7807
    -4.7011  -4.4166   0.5116   0.7260   0.7407   1.3450   1.5297   1.5529
     1.6175   1.8486   1.8863   2.2646   2.2811   2.2833   2.4921   3.1430
     3.2800   3.3185   3.3596   3.5320   3.6562   3.6895   3.9047   4.0752
     4.6602   5.3083   5.3195   5.6535   6.0379   6.6168   6.8086   6.8122
     7.1544   7.5476

          k = 1.5243 0.0000 0.1485 ( 36476 PWs)   bands (ev):

   -44.1565 -44.1565 -22.2960 -22.2960 -22.2315 -22.2315 -22.0740 -22.0740
    -7.1336  -6.9279  -6.6407  -6.6110  -6.1699  -5.4982  -4.9665  -4.7436
    -4.6935  -4.4426   0.5233   0.7643   0.8799   1.0826   1.4290   1.5088
     1.5459   1.6965   2.0732   2.0831   2.3182   2.6894   2.9109   3.1158
     3.2682   3.3428   3.3561   3.5697   3.5713   3.7000   3.7522   4.1115
     4.2731   4.5942   5.8892   6.0523   6.2066   6.5355   6.8078   6.8557
     7.0172   7.4884

          k = 1.5243 0.0000-0.2971 ( 36508 PWs)   bands (ev):

   -44.1565 -44.1565 -22.2960 -22.2960 -22.2315 -22.2315 -22.0740 -22.0740
    -7.0420  -7.0420  -6.6459  -6.6459  -5.8446  -5.8446  -4.8419  -4.8419
    -4.5380  -4.5380   0.6457   0.6457   1.0941   1.0941   1.2295   1.2295
     1.5819   1.5819   2.0534   2.0534   2.8522   2.8522   3.1604   3.1604
     3.2921   3.2921   3.3569   3.3569   3.6481   3.6481   3.8276   3.8276
     4.1454   4.1454   6.1307   6.1307   6.6227   6.6227   6.7709   6.7709
     7.0990   7.0990

          k =-0.2541-0.4514 0.0000 ( 36444 PWs)   bands (ev):

   -44.1574 -44.1574 -22.3007 -22.3007 -22.2073 -22.2073 -22.0771 -22.0770
    -7.4829  -7.0568  -6.7912  -6.7701  -6.6129  -5.2536  -5.1551  -4.8911
    -4.7984  -4.0064   0.6193   0.9598   1.1154   1.2786   1.4533   1.5093
     2.0375   2.2083   2.2342   2.3019   2.4386   3.1395   3.2183   3.2814
     3.5290   3.7178   3.7446   3.7480   3.9653   4.0005   4.0969   4.1698
     4.4517   4.5539   5.8504   6.0371   6.3939   6.4812   6.7376   6.8842
     6.9066   6.9980

          k =-0.2541-0.4514 0.1485 ( 36461 PWs)   bands (ev):

   -44.1574 -44.1574 -22.3007 -22.3007 -22.2073 -22.2073 -22.0771 -22.0770
    -7.4448  -7.1699  -6.8077  -6.7778  -6.4108  -5.6293  -4.9713  -4.8257
    -4.6880  -4.0949   0.6263   0.9707   1.0850   1.2578   1.3064   1.6868
     1.8981   2.2665   2.3184   2.4756   2.6240   2.8974   3.2037   3.2174
     3.3609   3.5088   3.7963   3.8299   3.9137   4.0049   4.0660   4.1048
     4.6982   4.9854   5.7602   5.8534   6.1910   6.2512   6.7398   6.7528
     7.1352   7.2579

          k =-0.2541-0.4514-0.2971 ( 36490 PWs)   bands (ev):

   -44.1574 -44.1574 -22.3007 -22.3007 -22.2073 -22.2073 -22.0771 -22.0771
    -7.3342  -7.3342  -6.7962  -6.7962  -6.0466  -6.0466  -4.8921  -4.8921
    -4.3420  -4.3420   0.7376   0.7376   1.2680   1.2680   1.3564   1.3564
     2.2424   2.2424   2.4501   2.4501   2.7631   2.7631   3.1842   3.1842
     3.2371   3.2371   3.7856   3.7856   4.0037   4.0037   4.0772   4.0772
     5.1963   5.1963   5.6342   5.6342   5.9953   5.9953   6.7419   6.7419
     7.3520   7.3520

          k = 0.0000-0.3869 0.0000 ( 36477 PWs)   bands (ev):

   -44.1578 -44.1578 -22.3027 -22.3027 -22.1972 -22.1972 -22.0784 -22.0783
    -7.6007  -7.1408  -6.8922  -6.8136  -6.6719  -5.2859  -5.1695  -4.9338
    -4.8388  -3.8708   0.5634   0.8220   0.9852   1.1553   1.6242   1.6713
     2.4363   2.4997   2.6355   2.9371   3.0239   3.0240   3.0912   3.1517
     3.3463   3.5053   3.7782   3.9031   3.9775   4.0080   4.0795   4.6304
     5.1668   5.3996   5.6191   5.7211   5.9370   6.1994   6.5581   6.6550
     6.9362   7.2163

          k = 0.0000-0.3869 0.1485 ( 36452 PWs)   bands (ev):

   -44.1578 -44.1578 -22.3027 -22.3027 -22.1972 -22.1972 -22.0784 -22.0783
    -7.5616  -7.2733  -6.8662  -6.8207  -6.4911  -5.6860  -4.9920  -4.8636
    -4.6891  -3.9827   0.5722   0.9722   1.0481   1.1250   1.1983   2.1102
     2.1998   2.4611   2.6015   2.8737   2.9056   3.0297   3.1030   3.2765
     3.6218   3.6308   3.6827   3.9087   4.0050   4.0257   4.0609   4.6502
     4.9460   5.0199   5.7626   5.9275   6.0896   6.1062   6.4945   6.7754
     6.8907   7.1971

          k = 0.0000-0.3869-0.2971 ( 36454 PWs)   bands (ev):

   -44.1578 -44.1578 -22.3027 -22.3027 -22.1972 -22.1972 -22.0784 -22.0784
    -7.4473  -7.4473  -6.8412  -6.8412  -6.1219  -6.1219  -4.9233  -4.9233
    -4.2833  -4.2833   0.7409   0.7409   1.0969   1.0969   1.5309   1.5309
     2.5266   2.5266   2.6831   2.6831   2.9952   2.9952   3.0520   3.0520
     3.7780   3.7780   3.8569   3.8569   3.9869   3.9869   4.4198   4.4198
     4.7358   4.7358   5.8772   5.8772   6.3374   6.3374   6.3890   6.3890
     7.1517   7.1517

          k =-2.0325 0.0000 0.0000 ( 36452 PWs)   bands (ev):

   -44.1578 -44.1578 -22.3027 -22.3027 -22.1972 -22.1972 -22.0784 -22.0783
    -7.5937  -7.1335  -6.8909  -6.8197  -6.6860  -5.2852  -5.1739  -4.9344
    -4.8370  -3.8715   0.5669   0.8285   1.0923   1.1626   1.6656   1.6800
     2.4405   2.4835   2.6438   2.7919   2.9331   3.0177   3.1209   3.1496
     3.4382   3.4941   3.7927   3.8061   3.9466   3.9642   4.0793   4.6322
     5.1599   5.3884   5.6263   5.7579   5.9520   6.2093   6.5079   6.6790
     6.9369   7.2016

          k =-2.0325 0.0000 0.1485 ( 36456 PWs)   bands (ev):

   -44.1578 -44.1578 -22.3027 -22.3027 -22.1972 -22.1972 -22.0784 -22.0783
    -7.5546  -7.2656  -6.8734  -6.8288  -6.4950  -5.6852  -4.9992  -4.8632
    -4.6861  -3.9826   0.5721   1.0159   1.0592   1.1659   1.2640   2.1216
     2.2084   2.4657   2.6090   2.7428   2.8048   3.0238   3.0990   3.3398
     3.6012   3.6224   3.7016   3.8791   3.9588   4.0219   4.0240   4.6519
     4.9441   5.0178   5.7809   5.9307   6.0743   6.1135   6.4776   6.7763
     6.9064   7.1823

          k =-2.0325 0.0000-0.2971 ( 36460 PWs)   bands (ev):

   -44.1578 -44.1578 -22.3027 -22.3027 -22.1972 -22.1972 -22.0784 -22.0784
    -7.4400  -7.4400  -6.8504  -6.8504  -6.1219  -6.1219  -4.9267  -4.9267
    -4.2818  -4.2818   0.7379   0.7379   1.1775   1.1775   1.5439   1.5439
     2.5323   2.5323   2.6103   2.6103   2.9691   2.9691   3.0467   3.0467
     3.7782   3.7782   3.8518   3.8518   3.9533   3.9533   4.4150   4.4150
     4.7367   4.7367   5.8619   5.8619   6.3439   6.3439   6.3906   6.3906
     7.1388   7.1388

     the Fermi energy is     5.2877 ev

!    total energy              =   -4240.93386412 Ry

     total all-electron energy =   -150287.627559 Ry
     estimated scf accuracy    <          2.3E-12 Ry
     smearing contrib. (-TS)   =       0.00003181 Ry
     internal energy E=F+TS    =   -4240.93389593 Ry

     The total energy is F=E-TS. E is the sum of the following terms:
     one-electron contribution =    -164.69920717 Ry
     hartree contribution      =     115.81459454 Ry
     xc contribution           =    -201.40915877 Ry
     ewald contribution        =    -223.13154447 Ry
     one-center paw contrib.   =   -3767.50858006 Ry

     convergence has been achieved in  19 iterations

     Forces acting on atoms (cartesian axes, Ry/au):

     atom    1 type  1   force =     0.00000000   -0.02323286    0.00000000
     atom    2 type  1   force =     0.00000000    0.02323286    0.00000000
     atom    3 type  2   force =     0.00000000    0.00241745    0.00000000
     atom    4 type  2   force =     0.00000000   -0.00241745    0.00000000
     atom    5 type  2   force =     0.00000000    0.00510371   -0.00003266
     atom    6 type  2   force =     0.00000000   -0.00510371    0.00003266
     atom    7 type  2   force =     0.00000000    0.00510371    0.00003266
     atom    8 type  2   force =     0.00000000   -0.00510371   -0.00003266
     atom    9 type  2   force =     0.00000000    0.01950285    0.01470812
     atom   10 type  2   force =     0.00000000   -0.01950285   -0.01470812
     atom   11 type  2   force =    -0.00000000    0.01950285   -0.01470812
     atom   12 type  2   force =    -0.00000000   -0.01950285    0.01470812

     Total force =     0.059851     Total SCF correction =     0.000003


     Computing stress (Cartesian axis) and pressure

          total   stress  (Ry/bohr**3)                   (kbar)     P=       -4.91
  -0.00001588   0.00000000   0.00000000           -2.34        0.00        0.00
   0.00000000  -0.00003256   0.00000000            0.00       -4.79        0.00
   0.00000000   0.00000000  -0.00005170            0.00        0.00       -7.60

 
     init_run     :     36.44s CPU     37.25s WALL (       1 calls)
     electrons    :   1872.73s CPU   1892.35s WALL (       1 calls)
     forces       :      7.07s CPU      7.32s WALL (       1 calls)
     stress       :     47.55s CPU     48.23s WALL (       1 calls)

     Called by init_run:
     wfcinit      :     31.40s CPU     31.67s WALL (       1 calls)
     potinit      :      1.55s CPU      1.60s WALL (       1 calls)
     hinit0       :      1.74s CPU      1.91s WALL (       1 calls)

     Called by electrons:
     c_bands      :   1514.90s CPU   1523.35s WALL (      20 calls)
     sum_band     :    320.73s CPU    327.25s WALL (      20 calls)
     v_of_rho     :      9.42s CPU     10.08s WALL (      20 calls)
     newd         :     19.48s CPU     23.69s WALL (      20 calls)
     PAW_pot      :      7.43s CPU      7.44s WALL (      20 calls)
     mix_rho      :      1.75s CPU      1.80s WALL (      20 calls)

     Called by c_bands:
     init_us_2    :     15.29s CPU     15.37s WALL (    2709 calls)
     cegterg      :   1429.26s CPU   1436.92s WALL (    1260 calls)

     Called by *egterg:
     cdiaghg      :     29.95s CPU     30.10s WALL (    8678 calls)
     h_psi        :   1235.19s CPU   1242.49s WALL (    8804 calls)
     s_psi        :     55.23s CPU     55.31s WALL (    8804 calls)
     g_psi        :      2.43s CPU      2.45s WALL (    7481 calls)

     Called by h_psi:
     h_psi:calbec :     47.04s CPU     47.15s WALL (    8804 calls)
     vloc_psi     :   1128.51s CPU   1135.52s WALL (    8804 calls)
     add_vuspsi   :     55.19s CPU     55.30s WALL (    8804 calls)

     General routines
     calbec       :     61.78s CPU     61.95s WALL (   10379 calls)
     fft          :      8.58s CPU      8.96s WALL (     284 calls)
     ffts         :      0.21s CPU      0.21s WALL (      40 calls)
     fftw         :   1133.69s CPU   1140.53s WALL (  456672 calls)
     interpolate  :      0.73s CPU      0.73s WALL (      20 calls)
 
     Parallel routines
     fft_scatt_xy :    295.86s CPU    297.68s WALL (  456996 calls)
     fft_scatt_yz :    237.45s CPU    239.30s WALL (  456996 calls)
 
     PWSCF        :  32m44.06s CPU  33m 7.01s WALL

 
   This run was terminated on:  15:19:37  19Nov2021            

=------------------------------------------------------------------------------=
   JOB DONE.
=------------------------------------------------------------------------------=
