
     Program PWSCF v.6.7MaX starts on 19Nov2021 at 14:46:17 

     This program is part of the open-source Quantum ESPRESSO suite
     for quantum simulation of materials; please cite
         "P. Giannozzi et al., J. Phys.:Condens. Matter 21 395502 (2009);
         "P. Giannozzi et al., J. Phys.:Condens. Matter 29 465901 (2017);
          URL http://www.quantum-espresso.org", 
     in publications or presentations arising from this work. More details at
     http://www.quantum-espresso.org/quote

     Parallel version (MPI), running on    10 processors

     MPI processes distributed on     1 nodes
     R & G space division:  proc/nbgrp/npool/nimage =      10
     Waiting for input...
     Reading input from standard input

     Current dimensions of program PWSCF are:
     Max number of different atomic species (ntypx) = 10
     Max number of k-points (npk) =  40000
     Max angular momentum in pseudopotentials (lmaxx) =  3
     file Zr.pbe-spn-kjpaw_psl.1.0.0.UPF: wavefunction(s)  4S 4P renormalized
     file Te.pbe-n-kjpaw_psl.1.0.0.UPF: wavefunction(s)  5S 5P renormalized

     Subspace diagonalization in iterative solution of the eigenvalue problem:
     a serial algorithm will be used

     Message from routine setup:
     using ibrav=0 with symmetry is DISCOURAGED, use correct ibrav instead
 
     Parallelization info
     --------------------
     sticks:   dense  smooth     PW     G-vecs:    dense   smooth      PW
     Min         734     293     87               115340    29174    4753
     Max         735     295     88               115345    29176    4760
     Sum        7345    2937    873              1153415   291749   47557
 


     bravais-lattice index     =            0
     lattice parameter (alat)  =      15.5510  a.u.
     unit-cell volume          =    3018.5011 (a.u.)^3
     number of atoms/cell      =           12
     number of atomic types    =            2
     number of electrons       =        84.00
     number of Kohn-Sham states=           50
     kinetic-energy cutoff     =      80.0000  Ry
     charge density cutoff     =     800.0000  Ry
     scf convergence threshold =      1.0E-10
     mixing beta               =       0.7000
     number of iterations used =            8  plain     mixing
     Exchange-correlation= SLA  PW   PBX  PBC
                           (   1   4   3   4   0   0   0)

     celldm(1)=  15.551040  celldm(2)=   0.000000  celldm(3)=   0.000000
     celldm(4)=   0.000000  celldm(5)=   0.000000  celldm(6)=   0.000000

     crystal axes: (cart. coord. in units of alat)
               a(1) = (   0.246007  -0.969268   0.000000 )  
               a(2) = (   0.246007   0.969268   0.000000 )  
               a(3) = (   0.000000   0.000000   1.683031 )  

     reciprocal axes: (cart. coord. in units 2 pi/alat)
               b(1) = (  2.032465 -0.515853  0.000000 )  
               b(2) = (  2.032465  0.515853  0.000000 )  
               b(3) = (  0.000000  0.000000  0.594166 )  


     PseudoPot. # 1 for Zr read from file:
     pseudo/Zr.pbe-spn-kjpaw_psl.1.0.0.UPF
     MD5 check sum: 02112c41713a0468aff2bb39ef194e36
     Pseudo is Projector augmented-wave + core cor, Zval = 12.0
     Generated using &quot;atomic&quot; code by A. Dal Corso  v.6.2.2
     Shape of augmentation charge: PSQ
     Using radial grid of 1225 points,  6 beta functions with: 
                l(1) =   0
                l(2) =   0
                l(3) =   1
                l(4) =   1
                l(5) =   2
                l(6) =   2
     Q(r) pseudized with 0 coefficients 


     PseudoPot. # 2 for Te read from file:
     pseudo/Te.pbe-n-kjpaw_psl.1.0.0.UPF
     MD5 check sum: 66247bff2bd9dbf220fbb0bf5ab56e9d
     Pseudo is Projector augmented-wave + core cor, Zval =  6.0
     Generated using &quot;atomic&quot; code by A. Dal Corso  v.6.3
     Shape of augmentation charge: PSQ
     Using radial grid of 1245 points,  6 beta functions with: 
                l(1) =   0
                l(2) =   0
                l(3) =   1
                l(4) =   1
                l(5) =   2
                l(6) =   2
     Q(r) pseudized with 0 coefficients 


     atomic species   valence    mass     pseudopotential
        Zr            12.00    91.22000     Zr( 1.00)
        Te             6.00   127.60000     Te( 1.00)

      8 Sym. Ops., with inversion, found ( 4 have fractional translation)



   Cartesian axes

     site n.     atom                  positions (alat units)
         1           Zr  tau(   1) = (   0.0000000   0.6072243   0.4207578  )
         2           Zr  tau(   2) = (   0.2460067   0.3620439   1.2622733  )
         3           Te  tau(   3) = (   0.2460067   0.3342809   0.4207578  )
         4           Te  tau(   4) = (   0.0000000   0.6349872   1.2622733  )
         5           Te  tau(   5) = (   0.2460067   0.8090898   0.2515610  )
         6           Te  tau(   6) = (   0.0000000   0.1601783   1.4314701  )
         7           Te  tau(   7) = (   0.2460067   0.8090898   0.5899545  )
         8           Te  tau(   8) = (   0.0000000   0.1601783   1.0930765  )
         9           Te  tau(   9) = (   0.0000000   0.4120595   0.7281801  )
        10           Te  tau(  10) = (   0.2460067   0.5572086   0.9548509  )
        11           Te  tau(  11) = (   0.0000000   0.4120595   0.1133354  )
        12           Te  tau(  12) = (   0.2460067   0.5572086   1.5696957  )

     number of k points=    63  Methfessel-Paxton smearing, width (Ry)=  0.0030
                       cart. coord. in units 2pi/alat
        k(    1) = (   0.0000000   0.0000000   0.0000000), wk =   0.0078125
        k(    2) = (   0.0000000   0.0000000   0.1485415), wk =   0.0156250
        k(    3) = (   0.0000000   0.0000000  -0.2970830), wk =   0.0078125
        k(    4) = (   0.2540581   0.0644816   0.0000000), wk =   0.0312500
        k(    5) = (   0.2540581   0.0644816   0.1485415), wk =   0.0625000
        k(    6) = (   0.2540581   0.0644816  -0.2970830), wk =   0.0312500
        k(    7) = (   0.5081162   0.1289633   0.0000000), wk =   0.0312500
        k(    8) = (   0.5081162   0.1289633   0.1485415), wk =   0.0625000
        k(    9) = (   0.5081162   0.1289633  -0.2970830), wk =   0.0312500
        k(   10) = (   0.7621743   0.1934449   0.0000000), wk =   0.0312500
        k(   11) = (   0.7621743   0.1934449   0.1485415), wk =   0.0625000
        k(   12) = (   0.7621743   0.1934449  -0.2970830), wk =   0.0312500
        k(   13) = (  -1.0162324  -0.2579266   0.0000000), wk =   0.0156250
        k(   14) = (  -1.0162324  -0.2579266   0.1485415), wk =   0.0312500
        k(   15) = (  -1.0162324  -0.2579266  -0.2970830), wk =   0.0156250
        k(   16) = (   0.5081162   0.0000000   0.0000000), wk =   0.0156250
        k(   17) = (   0.5081162   0.0000000   0.1485415), wk =   0.0312500
        k(   18) = (   0.5081162   0.0000000  -0.2970830), wk =   0.0156250
        k(   19) = (   0.7621743   0.0644816   0.0000000), wk =   0.0312500
        k(   20) = (   0.7621743   0.0644816   0.1485415), wk =   0.0625000
        k(   21) = (   0.7621743   0.0644816  -0.2970830), wk =   0.0312500
        k(   22) = (   1.0162324   0.1289633   0.0000000), wk =   0.0312500
        k(   23) = (   1.0162324   0.1289633   0.1485415), wk =   0.0625000
        k(   24) = (   1.0162324   0.1289633  -0.2970830), wk =   0.0312500
        k(   25) = (  -0.7621743  -0.3224082   0.0000000), wk =   0.0312500
        k(   26) = (  -0.7621743  -0.3224082   0.1485415), wk =   0.0625000
        k(   27) = (  -0.7621743  -0.3224082  -0.2970830), wk =   0.0312500
        k(   28) = (  -0.5081162  -0.2579266   0.0000000), wk =   0.0312500
        k(   29) = (  -0.5081162  -0.2579266   0.1485415), wk =   0.0625000
        k(   30) = (  -0.5081162  -0.2579266  -0.2970830), wk =   0.0312500
        k(   31) = (  -0.2540581  -0.1934449   0.0000000), wk =   0.0312500
        k(   32) = (  -0.2540581  -0.1934449   0.1485415), wk =   0.0625000
        k(   33) = (  -0.2540581  -0.1934449  -0.2970830), wk =   0.0312500
        k(   34) = (   0.0000000  -0.1289633   0.0000000), wk =   0.0156250
        k(   35) = (   0.0000000  -0.1289633   0.1485415), wk =   0.0312500
        k(   36) = (   0.0000000  -0.1289633  -0.2970830), wk =   0.0156250
        k(   37) = (   1.0162324   0.0000000   0.0000000), wk =   0.0156250
        k(   38) = (   1.0162324   0.0000000   0.1485415), wk =   0.0312500
        k(   39) = (   1.0162324   0.0000000  -0.2970830), wk =   0.0156250
        k(   40) = (   1.2702905   0.0644816   0.0000000), wk =   0.0312500
        k(   41) = (   1.2702905   0.0644816   0.1485415), wk =   0.0625000
        k(   42) = (   1.2702905   0.0644816  -0.2970830), wk =   0.0312500
        k(   43) = (  -0.5081162  -0.3868899   0.0000000), wk =   0.0312500
        k(   44) = (  -0.5081162  -0.3868899   0.1485415), wk =   0.0625000
        k(   45) = (  -0.5081162  -0.3868899  -0.2970830), wk =   0.0312500
        k(   46) = (  -0.2540581  -0.3224082   0.0000000), wk =   0.0312500
        k(   47) = (  -0.2540581  -0.3224082   0.1485415), wk =   0.0625000
        k(   48) = (  -0.2540581  -0.3224082  -0.2970830), wk =   0.0312500
        k(   49) = (   0.0000000  -0.2579266   0.0000000), wk =   0.0156250
        k(   50) = (   0.0000000  -0.2579266   0.1485415), wk =   0.0312500
        k(   51) = (   0.0000000  -0.2579266  -0.2970830), wk =   0.0156250
        k(   52) = (   1.5243485   0.0000000   0.0000000), wk =   0.0156250
        k(   53) = (   1.5243485   0.0000000   0.1485415), wk =   0.0312500
        k(   54) = (   1.5243485   0.0000000  -0.2970830), wk =   0.0156250
        k(   55) = (  -0.2540581  -0.4513715   0.0000000), wk =   0.0312500
        k(   56) = (  -0.2540581  -0.4513715   0.1485415), wk =   0.0625000
        k(   57) = (  -0.2540581  -0.4513715  -0.2970830), wk =   0.0312500
        k(   58) = (   0.0000000  -0.3868899   0.0000000), wk =   0.0156250
        k(   59) = (   0.0000000  -0.3868899   0.1485415), wk =   0.0312500
        k(   60) = (   0.0000000  -0.3868899  -0.2970830), wk =   0.0156250
        k(   61) = (  -2.0324647   0.0000000   0.0000000), wk =   0.0078125
        k(   62) = (  -2.0324647   0.0000000   0.1485415), wk =   0.0156250
        k(   63) = (  -2.0324647   0.0000000  -0.2970830), wk =   0.0078125

     Dense  grid:  1153415 G-vectors     FFT dimensions: ( 144, 144, 240)

     Smooth grid:   291749 G-vectors     FFT dimensions: (  90,  90, 150)

     Estimated max dynamical RAM per process >     657.19 MB

     Estimated total dynamical RAM >       6.42 GB

     Initial potential from superposition of free atoms

     starting charge   83.99353, renormalised to   84.00000
     Starting wfcs are   66 randomized atomic wfcs
     Checking if some PAW data can be deallocated... 

     total cpu time spent up to now is       42.9 secs

     Self-consistent Calculation

     iteration #  1     ecut=    80.00 Ry     beta= 0.70
     Davidson diagonalization with overlap
     ethr =  1.00E-02,  avg # of iterations =  2.0

     Threshold (ethr) on eigenvalues was too large:
     Diagonalizing with lowered threshold

     Davidson diagonalization with overlap
     ethr =  4.04E-04,  avg # of iterations =  4.0

     total cpu time spent up to now is      200.0 secs

     total energy              =   -4240.73072556 Ry
     estimated scf accuracy    <       0.43199912 Ry

     iteration #  2     ecut=    80.00 Ry     beta= 0.70
     Davidson diagonalization with overlap
     ethr =  5.14E-04,  avg # of iterations =  7.8

     total cpu time spent up to now is      310.0 secs

     total energy              =   -4240.63676385 Ry
     estimated scf accuracy    <       2.09200504 Ry

     iteration #  3     ecut=    80.00 Ry     beta= 0.70
     Davidson diagonalization with overlap
     ethr =  5.14E-04,  avg # of iterations =  5.3

     total cpu time spent up to now is      403.5 secs

     total energy              =   -4240.93383716 Ry
     estimated scf accuracy    <       0.01287042 Ry

     iteration #  4     ecut=    80.00 Ry     beta= 0.70
     Davidson diagonalization with overlap
     c_bands:  2 eigenvalues not converged
     c_bands:  1 eigenvalues not converged
     c_bands:  2 eigenvalues not converged
     c_bands:  2 eigenvalues not converged
     c_bands:  1 eigenvalues not converged
     c_bands:  1 eigenvalues not converged
     c_bands:  2 eigenvalues not converged
     c_bands:  2 eigenvalues not converged
     c_bands:  1 eigenvalues not converged
     c_bands:  1 eigenvalues not converged
     c_bands:  1 eigenvalues not converged
     c_bands:  1 eigenvalues not converged
     c_bands:  1 eigenvalues not converged
     c_bands:  2 eigenvalues not converged
     ethr =  1.53E-05,  avg # of iterations = 17.0

     total cpu time spent up to now is      578.4 secs

     total energy              =   -4240.94825244 Ry
     estimated scf accuracy    <       0.08060314 Ry

     iteration #  5     ecut=    80.00 Ry     beta= 0.70
     Davidson diagonalization with overlap
     ethr =  1.53E-05,  avg # of iterations =  6.9

     total cpu time spent up to now is      668.0 secs

     total energy              =   -4240.95022931 Ry
     estimated scf accuracy    <       0.01609406 Ry

     iteration #  6     ecut=    80.00 Ry     beta= 0.70
     Davidson diagonalization with overlap
     ethr =  1.53E-05,  avg # of iterations =  3.4

     total cpu time spent up to now is      743.8 secs

     total energy              =   -4240.95150376 Ry
     estimated scf accuracy    <       0.00165050 Ry

     iteration #  7     ecut=    80.00 Ry     beta= 0.70
     Davidson diagonalization with overlap
     c_bands:  1 eigenvalues not converged
     c_bands:  1 eigenvalues not converged
     c_bands:  1 eigenvalues not converged
     c_bands:  1 eigenvalues not converged
     ethr =  1.96E-06,  avg # of iterations = 13.9

     total cpu time spent up to now is      873.6 secs

     total energy              =   -4240.95242175 Ry
     estimated scf accuracy    <       0.00210846 Ry

     iteration #  8     ecut=    80.00 Ry     beta= 0.70
     Davidson diagonalization with overlap
     c_bands:  1 eigenvalues not converged
     ethr =  1.96E-06,  avg # of iterations =  2.3

     total cpu time spent up to now is      943.4 secs

     total energy              =   -4240.95245868 Ry
     estimated scf accuracy    <       0.00035459 Ry

     iteration #  9     ecut=    80.00 Ry     beta= 0.70
     Davidson diagonalization with overlap
     ethr =  4.22E-07,  avg # of iterations =  6.3

     total cpu time spent up to now is     1030.6 secs

     total energy              =   -4240.95256155 Ry
     estimated scf accuracy    <       0.00002204 Ry

     iteration # 10     ecut=    80.00 Ry     beta= 0.70
     Davidson diagonalization with overlap
     ethr =  2.62E-08,  avg # of iterations =  5.7

     total cpu time spent up to now is     1118.1 secs

     total energy              =   -4240.95256684 Ry
     estimated scf accuracy    <       0.00001110 Ry

     iteration # 11     ecut=    80.00 Ry     beta= 0.70
     Davidson diagonalization with overlap
     ethr =  1.32E-08,  avg # of iterations =  5.1

     total cpu time spent up to now is     1198.2 secs

     total energy              =   -4240.95256955 Ry
     estimated scf accuracy    <       0.00000025 Ry

     iteration # 12     ecut=    80.00 Ry     beta= 0.70
     Davidson diagonalization with overlap
     ethr =  2.99E-10,  avg # of iterations =  7.4

     total cpu time spent up to now is     1301.8 secs

     total energy              =   -4240.95256976 Ry
     estimated scf accuracy    <       0.00000002 Ry

     iteration # 13     ecut=    80.00 Ry     beta= 0.70
     Davidson diagonalization with overlap
     ethr =  2.32E-11,  avg # of iterations =  6.4

     total cpu time spent up to now is     1394.6 secs

     total energy              =   -4240.95256977 Ry
     estimated scf accuracy    <          2.6E-10 Ry

     iteration # 14     ecut=    80.00 Ry     beta= 0.70
     Davidson diagonalization with overlap
     ethr =  3.14E-13,  avg # of iterations =  8.5

     total cpu time spent up to now is     1517.5 secs

     End of self-consistent calculation

          k = 0.0000 0.0000 0.0000 ( 36359 PWs)   bands (ev):

   -44.1368 -44.1368 -22.2674 -22.2674 -22.1718 -22.1718 -22.0643 -22.0642
    -7.7838  -7.3454  -7.1358  -6.8342  -6.3771  -5.3954  -4.9875  -4.8573
    -4.8052  -3.8464   0.3732   0.7472   0.7498   1.1038   1.4961   1.5216
     2.3408   2.3729   2.7097   2.7247   2.9667   3.0133   3.2078   3.4468
     3.6557   3.7454   3.9341   4.0610   4.2098   4.3331   4.3342   4.6579
     4.9174   5.5200   5.6259   5.7689   5.8374   5.9705   6.2305   6.8335
     6.9665   7.2732

          k = 0.0000 0.0000 0.1485 ( 36415 PWs)   bands (ev):

   -44.1368 -44.1368 -22.2674 -22.2674 -22.1718 -22.1718 -22.0643 -22.0642
    -7.7469  -7.4769  -7.0187  -6.8498  -6.2933  -5.6811  -4.8627  -4.8146
    -4.6718  -3.9631   0.4331   0.7836   0.9031   1.0253   1.0666   1.9417
     2.0778   2.3696   2.5767   2.8373   2.9546   3.1224   3.3778   3.3927
     3.6864   3.8156   3.9194   4.0600   4.1519   4.3504   4.3531   4.6635
     4.8100   5.0149   5.7838   5.9715   5.9815   5.9860   6.5730   6.6280
     6.7914   7.2185

          k = 0.0000 0.0000-0.2971 ( 36410 PWs)   bands (ev):

   -44.1368 -44.1368 -22.2674 -22.2674 -22.1718 -22.1718 -22.0642 -22.0642
    -7.6396  -7.6396  -6.9042  -6.9042  -6.0435  -6.0435  -4.8373  -4.8373
    -4.2701  -4.2701   0.6410   0.6410   0.9064   0.9064   1.3776   1.3776
     2.4524   2.4524   2.6595   2.6595   2.9147   2.9147   3.4633   3.4633
     3.8757   3.8757   3.9880   3.9880   4.3436   4.3436   4.3952   4.3952
     4.6988   4.6988   5.9486   5.9486   6.2222   6.2222   6.4024   6.4024
     7.0458   7.0458

          k = 0.2541 0.0645 0.0000 ( 36396 PWs)   bands (ev):

   -44.1365 -44.1365 -22.2655 -22.2655 -22.1816 -22.1816 -22.0631 -22.0630
    -7.6675  -7.2356  -7.0623  -6.7870  -6.3153  -5.3524  -4.9953  -4.8150
    -4.7620  -3.9940   0.4598   0.8779   0.8795   1.2217   1.3426   1.3759
     1.8779   1.8792   2.1086   2.5560   2.5848   3.1194   3.3538   3.7096
     3.7332   3.7660   3.7759   3.8062   4.0152   4.2487   4.2591   4.2696
     4.4837   4.6083   5.7816   5.9797   6.2366   6.5678   6.6094   6.7957
     7.0071   7.1621

          k = 0.2541 0.0645 0.1485 ( 36423 PWs)   bands (ev):

   -44.1365 -44.1365 -22.2655 -22.2655 -22.1816 -22.1816 -22.0631 -22.0630
    -7.6313  -7.3675  -6.9510  -6.8010  -6.2282  -5.6269  -4.8393  -4.7733
    -4.6840  -4.0873   0.5073   0.9155   0.9543   0.9715   1.1721   1.4948
     1.8047   2.2018   2.3080   2.5374   2.5664   2.9423   3.3135   3.3324
     3.5880   3.7438   3.9159   3.9219   4.0204   4.1337   4.2939   4.3227
     4.6823   4.9085   5.8293   5.8977   6.1851   6.2672   6.4383   6.7202
     7.2336   7.3066

          k = 0.2541 0.0645-0.2971 ( 36436 PWs)   bands (ev):

   -44.1365 -44.1365 -22.2655 -22.2655 -22.1816 -22.1816 -22.0631 -22.0631
    -7.5264  -7.5264  -6.8491  -6.8491  -5.9781  -5.9781  -4.8013  -4.8013
    -4.3416  -4.3416   0.6728   0.6728   1.0139   1.0139   1.2046   1.2046
     2.2203   2.2203   2.4779   2.4779   2.6748   2.6748   3.1610   3.1610
     3.6195   3.6195   3.9179   3.9179   4.0877   4.0877   4.3265   4.3265
     5.0731   5.0731   5.7685   5.7685   6.1281   6.1281   6.4473   6.4473
     7.4214   7.4214

          k = 0.5081 0.1290 0.0000 ( 36499 PWs)   bands (ev):

   -44.1356 -44.1356 -22.2608 -22.2608 -22.2052 -22.2052 -22.0602 -22.0602
    -7.3365  -6.9171  -6.8891  -6.6607  -6.1225  -5.2595  -5.0779  -4.7044
    -4.6553  -4.4362   0.5073   0.5840   0.6636   1.2224   1.2268   1.4793
     1.6841   1.7021   2.0188   2.0945   2.1673   2.2429   2.3870   3.3494
     3.4284   3.4978   3.5010   3.5911   3.7707   3.8927   3.9060   4.1693
     4.4686   5.1312   5.5209   6.0178   6.0377   6.5766   6.5922   6.9192
     7.4353   7.5655

          k = 0.5081 0.1290 0.1485 ( 36476 PWs)   bands (ev):

   -44.1356 -44.1356 -22.2608 -22.2608 -22.2052 -22.2052 -22.0602 -22.0602
    -7.3034  -7.0641  -6.7760  -6.6710  -6.0322  -5.4961  -4.9001  -4.6842
    -4.6633  -4.4663   0.4705   0.6713   0.7751   1.0323   1.2529   1.4017
     1.4656   1.5732   2.0236   2.0925   2.3350   2.4796   2.7987   3.3721
     3.4176   3.4374   3.5164   3.5811   3.6904   3.7482   3.8472   4.2257
     4.3351   4.5266   6.1080   6.1562   6.2835   6.5792   6.6345   6.7852
     7.2729   7.5013

          k = 0.5081 0.1290-0.2971 ( 36466 PWs)   bands (ev):

   -44.1356 -44.1356 -22.2608 -22.2608 -22.2052 -22.2052 -22.0602 -22.0602
    -7.2079  -7.2079  -6.7051  -6.7051  -5.7978  -5.7978  -4.7593  -4.7593
    -4.5570  -4.5570   0.5597   0.5597   1.0495   1.0495   1.1411   1.1411
     1.4034   1.4034   2.0582   2.0582   2.7241   2.7241   3.1489   3.1489
     3.3917   3.3917   3.5516   3.5516   3.7045   3.7045   3.8258   3.8258
     4.3077   4.3077   6.3492   6.3492   6.5530   6.5530   6.8147   6.8147
     7.1221   7.1221

          k = 0.7622 0.1934 0.0000 ( 36521 PWs)   bands (ev):

   -44.1347 -44.1347 -22.2560 -22.2560 -22.2288 -22.2288 -22.0574 -22.0573
    -6.8991  -6.7320  -6.4384  -6.4293  -5.8168  -5.3599  -5.2323  -5.0935
    -4.5809  -4.5451   0.0136   0.1055   0.5638   1.0455   1.0722   1.2600
     1.4799   1.6017   1.9506   2.0396   2.2558   2.3991   2.4104   2.7801
     2.8583   3.2642   3.3295   3.4242   3.6191   3.6979   3.7031   3.7904
     3.8791   4.5627   5.8567   6.2798   6.3435   6.8104   6.8112   6.9117
     7.2781   7.6047

          k = 0.7622 0.1934 0.1485 ( 36503 PWs)   bands (ev):

   -44.1347 -44.1347 -22.2560 -22.2560 -22.2288 -22.2288 -22.0574 -22.0573
    -6.8777  -6.7595  -6.4421  -6.4368  -5.7480  -5.4371  -5.1994  -5.1096
    -4.5717  -4.5471   0.0455   0.2496   0.4348   0.9285   1.0456   1.2227
     1.4937   1.6349   1.8517   2.0673   2.1338   2.6288   2.6916   2.8265
     2.8808   3.1025   3.2716   3.3909   3.5236   3.6201   3.6526   3.9275
     3.9753   4.5738   5.5978   6.3196   6.6233   6.7044   6.8687   6.9582
     7.0546   7.5515

          k = 0.7622 0.1934-0.2971 ( 36522 PWs)   bands (ev):

   -44.1347 -44.1347 -22.2560 -22.2560 -22.2288 -22.2288 -22.0573 -22.0573
    -6.8218  -6.8218  -6.4442  -6.4442  -5.5933  -5.5933  -5.1501  -5.1501
    -4.5560  -4.5560   0.1981   0.1981   0.5905   0.5905   1.0804   1.0804
     1.5697   1.5697   2.0100   2.0100   2.3707   2.3707   2.8106   2.8106
     2.9928   2.9928   3.3415   3.3415   3.5904   3.5904   3.8574   3.8574
     4.1150   4.1150   6.0959   6.0959   6.4268   6.4268   6.9445   6.9445
     7.3945   7.3945

          k =-1.0162-0.2579 0.0000 ( 36506 PWs)   bands (ev):

   -44.1343 -44.1343 -22.2538 -22.2538 -22.2386 -22.2386 -22.0562 -22.0562
    -6.7053  -6.6852  -5.9274  -5.9163  -5.8635  -5.8550  -5.3834  -5.3827
    -4.5238  -4.5000   0.0124   0.0361   0.3419   0.3630   1.0120   1.0212
     1.4677   1.6711   2.2346   2.3850   2.3921   2.3987   2.7931   2.8065
     2.8146   2.8623   3.2267   3.2620   3.3148   3.4339   3.5276   3.7327
     3.7416   4.0400   6.4965   6.5208   6.5395   6.6194   6.9996   7.0915
     7.0998   7.1132

          k =-1.0162-0.2579 0.1485 ( 36506 PWs)   bands (ev):

   -44.1343 -44.1343 -22.2538 -22.2538 -22.2386 -22.2386 -22.0562 -22.0562
    -6.7015  -6.6873  -5.9461  -5.9379  -5.8437  -5.8382  -5.3790  -5.3786
    -4.5242  -4.5073  -0.0838  -0.0764   0.5654   0.5722   1.0136   1.0331
     1.4645   1.5930   1.9671   2.0604   2.3767   2.3956   2.7159   2.7160
     2.9425   3.0157   3.1209   3.1967   3.5542   3.5722   3.6775   3.7524
     4.0368   4.1253   5.9709   5.9853   6.4610   6.5361   7.0556   7.0840
     7.2991   7.3407

          k =-1.0162-0.2579-0.2971 ( 36528 PWs)   bands (ev):

   -44.1343 -44.1343 -22.2538 -22.2538 -22.2386 -22.2386 -22.0562 -22.0562
    -6.6936  -6.6936  -5.9566  -5.9566  -5.8284  -5.8284  -5.3745  -5.3745
    -4.5197  -4.5197  -0.1432  -0.1432   0.8493   0.8493   0.9433   0.9433
     1.5381   1.5381   1.7032   1.7032   2.3764   2.3764   2.7724   2.7724
     2.9172   2.9172   3.1650   3.1650   3.6272   3.6272   3.7987   3.7987
     4.4203   4.4203   5.4943   5.4943   6.4174   6.4174   7.0932   7.0932
     7.3928   7.3928

          k = 0.5081 0.0000 0.0000 ( 36503 PWs)   bands (ev):

   -44.1356 -44.1356 -22.2608 -22.2608 -22.2052 -22.2052 -22.0602 -22.0602
    -7.3411  -6.9179  -6.8903  -6.6556  -6.1187  -5.2599  -5.0749  -4.6992
    -4.6616  -4.4357   0.5133   0.5876   0.6548   1.1981   1.2218   1.4568
     1.6869   1.7027   2.0049   2.1189   2.1391   2.2321   2.3847   3.3368
     3.4540   3.4623   3.5615   3.5941   3.7769   3.8914   3.9440   4.2064
     4.4706   5.1285   5.5267   5.9966   6.0731   6.5375   6.5410   6.9547
     7.4538   7.5779

          k = 0.5081 0.0000 0.1485 ( 36453 PWs)   bands (ev):

   -44.1356 -44.1356 -22.2608 -22.2608 -22.2052 -22.2052 -22.0602 -22.0602
    -7.3079  -7.0672  -6.7737  -6.6661  -6.0297  -5.4962  -4.8952  -4.6860
    -4.6631  -4.4673   0.4716   0.6665   0.7770   1.0345   1.2354   1.4161
     1.4239   1.5578   2.0201   2.1006   2.3508   2.4408   2.7936   3.3621
     3.4340   3.4649   3.4999   3.5889   3.6850   3.8175   3.8381   4.2639
     4.3482   4.5218   6.1034   6.1669   6.2994   6.5300   6.5980   6.8169
     7.2951   7.5087

          k = 0.5081 0.0000-0.2971 ( 36452 PWs)   bands (ev):

   -44.1356 -44.1356 -22.2608 -22.2608 -22.2052 -22.2052 -22.0602 -22.0602
    -7.2120  -7.2120  -6.7006  -6.7006  -5.7972  -5.7972  -4.7553  -4.7553
    -4.5598  -4.5598   0.5565   0.5565   1.0498   1.0498   1.1544   1.1544
     1.3633   1.3633   2.0599   2.0599   2.7152   2.7152   3.1354   3.1354
     3.3909   3.3909   3.5766   3.5766   3.7296   3.7296   3.8267   3.8267
     4.3293   4.3293   6.3650   6.3650   6.5171   6.5171   6.8315   6.8315
     7.1234   7.1234

          k = 0.7622 0.0645 0.0000 ( 36505 PWs)   bands (ev):

   -44.1347 -44.1347 -22.2560 -22.2560 -22.2288 -22.2288 -22.0574 -22.0573
    -6.9080  -6.7298  -6.4310  -6.4300  -5.8165  -5.3563  -5.2330  -5.0929
    -4.5722  -4.5548   0.0091   0.1161   0.5818   1.0602   1.0773   1.2742
     1.4413   1.5624   1.9237   2.0569   2.2561   2.3557   2.3806   2.7540
     2.8460   3.3153   3.3526   3.4494   3.6248   3.6327   3.7279   3.8269
     3.8964   4.5993   5.8544   6.2833   6.3244   6.7814   6.8687   6.8698
     7.2960   7.6162

          k = 0.7622 0.0645 0.1485 ( 36509 PWs)   bands (ev):

   -44.1347 -44.1347 -22.2560 -22.2560 -22.2288 -22.2288 -22.0574 -22.0573
    -6.8859  -6.7605  -6.4360  -6.4327  -5.7485  -5.4365  -5.1979  -5.1087
    -4.5657  -4.5540   0.0481   0.2521   0.4442   0.9343   1.0572   1.2382
     1.4596   1.6349   1.8789   1.9960   2.0635   2.6483   2.6741   2.8097
     2.8642   3.1049   3.3298   3.4012   3.5151   3.6221   3.6629   3.9491
     4.0083   4.5715   5.6236   6.2997   6.6327   6.7027   6.8837   6.9557
     7.0299   7.5705

          k = 0.7622 0.0645-0.2971 ( 36472 PWs)   bands (ev):

   -44.1347 -44.1347 -22.2560 -22.2560 -22.2288 -22.2288 -22.0573 -22.0573
    -6.8276  -6.8276  -6.4376  -6.4376  -5.5942  -5.5942  -5.1484  -5.1484
    -4.5563  -4.5563   0.2046   0.2046   0.5843   0.5843   1.1040   1.1040
     1.5632   1.5632   1.9609   1.9609   2.3429   2.3429   2.8108   2.8108
     2.9813   2.9813   3.4027   3.4027   3.5874   3.5874   3.8442   3.8442
     4.1362   4.1362   6.1211   6.1211   6.4277   6.4277   6.9116   6.9116
     7.4218   7.4218

          k = 1.0162 0.1290 0.0000 ( 36514 PWs)   bands (ev):

   -44.1343 -44.1343 -22.2538 -22.2538 -22.2386 -22.2386 -22.0562 -22.0562
    -6.7053  -6.6852  -5.9272  -5.9166  -5.8635  -5.8550  -5.3834  -5.3827
    -4.5238  -4.5000   0.0066   0.0421   0.3374   0.3677   1.0060   1.0285
     1.4734   1.6621   2.2349   2.3825   2.3829   2.4017   2.7894   2.8051
     2.8248   2.8769   3.2432   3.2447   3.3046   3.4235   3.5607   3.7187
     3.7220   4.0529   6.4873   6.5307   6.5345   6.6256   7.0161   7.0930
     7.1018   7.1025

          k = 1.0162 0.1290 0.1485 ( 36524 PWs)   bands (ev):

   -44.1343 -44.1343 -22.2538 -22.2538 -22.2386 -22.2386 -22.0562 -22.0562
    -6.7015  -6.6873  -5.9460  -5.9380  -5.8437  -5.8383  -5.3791  -5.3785
    -4.5242  -4.5073  -0.0860  -0.0746   0.5665   0.5718   1.0165   1.0308
     1.4695   1.5882   1.9787   2.0446   2.3744   2.3906   2.6721   2.7668
     2.9576   3.0278   3.1065   3.1903   3.5313   3.6090   3.6718   3.7400
     4.0189   4.1448   5.9625   5.9969   6.4579   6.5388   7.0617   7.0829
     7.3052   7.3350

          k = 1.0162 0.1290-0.2971 ( 36516 PWs)   bands (ev):

   -44.1343 -44.1343 -22.2538 -22.2538 -22.2386 -22.2386 -22.0562 -22.0562
    -6.6936  -6.6936  -5.9566  -5.9566  -5.8284  -5.8284  -5.3745  -5.3745
    -4.5197  -4.5197  -0.1433  -0.1433   0.8497   0.8497   0.9435   0.9435
     1.5388   1.5388   1.7040   1.7040   2.3670   2.3670   2.7568   2.7568
     2.9647   2.9647   3.1401   3.1401   3.6313   3.6313   3.7942   3.7942
     4.4208   4.4208   5.4965   5.4965   6.4169   6.4169   7.0950   7.0950
     7.3933   7.3933

          k =-0.7622-0.3224 0.0000 ( 36511 PWs)   bands (ev):

   -44.1347 -44.1347 -22.2560 -22.2560 -22.2288 -22.2288 -22.0574 -22.0573
    -6.8853  -6.7362  -6.4503  -6.4268  -5.8173  -5.3649  -5.2312  -5.0944
    -4.5879  -4.5367   0.0202   0.0909   0.5390   1.0149   1.0891   1.2421
     1.5025   1.6654   2.0062   2.0177   2.2873   2.4250   2.4419   2.8167
     2.8722   3.1990   3.3108   3.4313   3.5809   3.6624   3.6853   3.8380
     3.8470   4.5018   5.8600   6.2692   6.3864   6.7291   6.8550   6.9780
     7.2444   7.5919

          k =-0.7622-0.3224 0.1485 ( 36492 PWs)   bands (ev):

   -44.1347 -44.1346 -22.2560 -22.2560 -22.2288 -22.2288 -22.0574 -22.0573
    -6.8651  -6.7588  -6.4533  -6.4404  -5.7474  -5.4381  -5.2015  -5.1109
    -4.5765  -4.5412   0.0410   0.2479   0.4208   0.9145   1.0444   1.2016
     1.5328   1.6357   1.8327   2.1723   2.2213   2.6113   2.6980   2.8477
     2.8979   3.1210   3.1998   3.3766   3.4774   3.6118   3.6819   3.8834
     3.9350   4.5756   5.5635   6.3517   6.5977   6.7044   6.8426   6.9972
     7.0828   7.5157

          k =-0.7622-0.3224-0.2971 ( 36508 PWs)   bands (ev):

   -44.1347 -44.1347 -22.2560 -22.2560 -22.2288 -22.2288 -22.0573 -22.0573
    -6.8134  -6.8134  -6.4540  -6.4540  -5.5921  -5.5921  -5.1525  -5.1525
    -4.5556  -4.5556   0.1889   0.1889   0.5990   0.5990   1.0529   1.0529
     1.5777   1.5777   2.0648   2.0648   2.4297   2.4297   2.8118   2.8118
     3.0095   3.0095   3.2548   3.2548   3.5901   3.5901   3.8621   3.8621
     4.0930   4.0930   6.0630   6.0630   6.4242   6.4242   6.9995   6.9995
     7.3482   7.3482

          k =-0.5081-0.2579 0.0000 ( 36480 PWs)   bands (ev):

   -44.1356 -44.1356 -22.2608 -22.2608 -22.2052 -22.2052 -22.0602 -22.0602
    -7.3250  -6.9152  -6.8867  -6.6724  -6.1318  -5.2586  -5.0853  -4.7123
    -4.6445  -4.4373   0.4935   0.5830   0.6726   1.2381   1.2949   1.5334
     1.6767   1.7077   2.0544   2.0662   2.1886   2.2759   2.3898   3.3766
     3.3816   3.4308   3.5339   3.5356   3.7449   3.8079   3.9203   4.0938
     4.4599   5.1358   5.5093   5.9447   6.0791   6.6756   6.7130   6.8345
     7.3787   7.5379

          k =-0.5081-0.2579 0.1485 ( 36485 PWs)   bands (ev):

   -44.1356 -44.1356 -22.2608 -22.2608 -22.2052 -22.2052 -22.0602 -22.0602
    -7.2921  -7.0563  -6.7821  -6.6829  -6.0380  -5.4957  -4.9115  -4.6805
    -4.6633  -4.4639   0.4683   0.6810   0.7692   1.0273   1.2994   1.3994
     1.5347   1.6208   2.0254   2.0799   2.3194   2.5442   2.8105   3.3296
     3.3948   3.4316   3.5321   3.5486   3.6261   3.7162   3.8390   4.1477
     4.2943   4.5352   6.0936   6.1488   6.2531   6.6823   6.7165   6.7368
     7.2136   7.4864

          k =-0.5081-0.2579-0.2971 ( 36478 PWs)   bands (ev):

   -44.1356 -44.1356 -22.2608 -22.2608 -22.2052 -22.2052 -22.0602 -22.0602
    -7.1976  -7.1976  -6.7162  -6.7162  -5.7990  -5.7990  -4.7686  -4.7686
    -4.5506  -4.5506   0.5670   0.5670   1.0484   1.0484   1.1190   1.1190
     1.4991   1.4991   2.0509   2.0509   2.7497   2.7497   3.1750   3.1750
     3.3827   3.3827   3.4687   3.4687   3.6861   3.6861   3.8180   3.8180
     4.2556   4.2556   6.3120   6.3120   6.6292   6.6292   6.7794   6.7794
     7.1257   7.1257

          k =-0.2541-0.1934 0.0000 ( 36410 PWs)   bands (ev):

   -44.1365 -44.1365 -22.2655 -22.2655 -22.1816 -22.1816 -22.0631 -22.0630
    -7.6595  -7.2342  -7.0556  -6.7959  -6.3290  -5.3532  -5.0029  -4.8228
    -4.7508  -3.9950   0.4866   0.8874   0.9485   1.2495   1.3403   1.4092
     1.9017   1.9022   2.1102   2.5227   2.5732   3.1842   3.3124   3.6346
     3.6648   3.7227   3.7639   3.8692   3.8747   4.2026   4.2324   4.2571
     4.3989   4.6101   5.8353   6.0043   6.2965   6.5983   6.6240   6.8081
     6.9931   7.0820

          k =-0.2541-0.1934 0.1485 ( 36427 PWs)   bands (ev):

   -44.1365 -44.1365 -22.2655 -22.2655 -22.1816 -22.1816 -22.0631 -22.0630
    -7.6235  -7.3620  -6.9515  -6.8095  -6.2383  -5.6281  -4.8576  -4.7671
    -4.6774  -4.0872   0.5313   0.9437   0.9699   1.0319   1.2047   1.5099
     1.8099   2.2047   2.3337   2.5210   2.5496   2.9251   3.3319   3.3726
     3.5881   3.6415   3.7668   3.8960   3.9775   4.1124   4.2531   4.2709
     4.6747   4.8991   5.8147   5.9201   6.1729   6.3332   6.5092   6.7235
     7.1925   7.2962

          k =-0.2541-0.1934-0.2971 ( 36422 PWs)   bands (ev):

   -44.1365 -44.1365 -22.2655 -22.2655 -22.1816 -22.1816 -22.0631 -22.0631
    -7.5192  -7.5192  -6.8556  -6.8556  -5.9823  -5.9823  -4.8064  -4.8064
    -4.3391  -4.3391   0.6913   0.6913   1.0766   1.0766   1.2130   1.2130
     2.2212   2.2212   2.4700   2.4700   2.6732   2.6732   3.1831   3.1831
     3.5842   3.5842   3.8146   3.8146   4.0706   4.0706   4.2722   4.2722
     5.0804   5.0804   5.7293   5.7293   6.1329   6.1329   6.5275   6.5275
     7.4001   7.4001

          k = 0.0000-0.1290 0.0000 ( 36417 PWs)   bands (ev):

   -44.1368 -44.1368 -22.2674 -22.2674 -22.1718 -22.1718 -22.0643 -22.0642
    -7.7796  -7.3447  -7.1313  -6.8391  -6.3858  -5.3962  -4.9918  -4.8633
    -4.7974  -3.8470   0.3936   0.7546   0.7886   1.1121   1.5071   1.5485
     2.3425   2.3737   2.7167   2.7236   2.9659   3.0190   3.2457   3.4307
     3.6005   3.7344   3.8242   4.0136   4.2099   4.2765   4.2883   4.6579
     4.9072   5.4828   5.6504   5.7763   5.8554   6.0178   6.2802   6.8204
     6.9668   7.2455

          k = 0.0000-0.1290 0.1485 ( 36419 PWs)   bands (ev):

   -44.1368 -44.1368 -22.2674 -22.2674 -22.1718 -22.1718 -22.0643 -22.0642
    -7.7428  -7.4741  -7.0180  -6.8543  -6.3000  -5.6822  -4.8734  -4.8101
    -4.6686  -3.9632   0.4520   0.8254   0.9140   1.0277   1.0876   1.9482
     2.0944   2.3714   2.5795   2.8395   2.9543   3.1346   3.3539   3.3974
     3.6777   3.8057   3.8173   3.9897   4.1496   4.2973   4.3092   4.6633
     4.8041   5.0050   5.7947   5.9894   5.9907   6.0164   6.5956   6.6239
     6.7923   7.2031

          k = 0.0000-0.1290-0.2971 ( 36464 PWs)   bands (ev):

   -44.1368 -44.1368 -22.2674 -22.2674 -22.1718 -22.1718 -22.0642 -22.0642
    -7.6358  -7.6358  -6.9072  -6.9072  -6.0466  -6.0466  -4.8399  -4.8399
    -4.2690  -4.2690   0.6627   0.6627   0.9291   0.9291   1.3853   1.3853
     2.4546   2.4546   2.6703   2.6703   2.9156   2.9156   3.4448   3.4448
     3.8260   3.8260   3.9811   3.9811   4.2488   4.2488   4.4127   4.4127
     4.6973   4.6973   5.9549   5.9549   6.2412   6.2412   6.4047   6.4047
     7.0452   7.0452

          k = 1.0162 0.0000 0.0000 ( 36499 PWs)   bands (ev):

   -44.1343 -44.1343 -22.2538 -22.2538 -22.2386 -22.2386 -22.0562 -22.0562
    -6.7053  -6.6852  -5.9269  -5.9169  -5.8635  -5.8549  -5.3834  -5.3827
    -4.5238  -4.5000   0.0022   0.0465   0.3339   0.3713   1.0028   1.0330
     1.4799   1.6523   2.2349   2.3742   2.3815   2.4041   2.7861   2.8033
     2.8314   2.8939   3.2482   3.2630   3.2742   3.4090   3.6058   3.6905
     3.7065   4.0648   6.4811   6.5301   6.5375   6.6314   7.0400   7.0844
     7.0945   7.1040

          k = 1.0162 0.0000 0.1485 ( 36485 PWs)   bands (ev):

   -44.1343 -44.1343 -22.2538 -22.2538 -22.2386 -22.2386 -22.0562 -22.0562
    -6.7015  -6.6873  -5.9458  -5.9382  -5.8437  -5.8383  -5.3791  -5.3785
    -4.5242  -4.5073  -0.0876  -0.0733   0.5679   0.5710   1.0218   1.0260
     1.4752   1.5829   2.0067   2.0124   2.3770   2.3811   2.6578   2.7850
     2.9795   3.0636   3.0638   3.1846   3.5222   3.6320   3.6722   3.7214
     4.0056   4.1597   5.9580   6.0045   6.4551   6.5412   7.0698   7.0797
     7.3175   7.3231

          k = 1.0162 0.0000-0.2971 ( 36514 PWs)   bands (ev):

   -44.1343 -44.1343 -22.2538 -22.2538 -22.2386 -22.2386 -22.0562 -22.0562
    -6.6936  -6.6936  -5.9566  -5.9566  -5.8284  -5.8284  -5.3745  -5.3745
    -4.5197  -4.5197  -0.1434  -0.1434   0.8500   0.8500   0.9437   0.9437
     1.5396   1.5396   1.7048   1.7048   2.3579   2.3579   2.7459   2.7459
     3.0272   3.0272   3.0952   3.0952   3.6356   3.6356   3.7896   3.7896
     4.4212   4.4212   5.4987   5.4987   6.4164   6.4164   7.0967   7.0967
     7.3938   7.3938

          k = 1.2703 0.0645 0.0000 ( 36468 PWs)   bands (ev):

   -44.1347 -44.1346 -22.2560 -22.2560 -22.2288 -22.2288 -22.0574 -22.0573
    -6.8743  -6.7403  -6.4587  -6.4251  -5.8177  -5.3685  -5.2305  -5.0950
    -4.5915  -4.5321   0.0249   0.0808   0.5219   0.9995   1.1009   1.2301
     1.5069   1.7112   2.0035   2.0611   2.3242   2.4344   2.4435   2.8441
     2.8774   3.1446   3.3331   3.4824   3.5284   3.5670   3.6916   3.7912
     3.9245   4.4478   5.8624   6.2652   6.4213   6.6701   6.8895   7.0360
     7.2087   7.5929

          k = 1.2703 0.0645 0.1485 ( 36490 PWs)   bands (ev):

   -44.1347 -44.1347 -22.2560 -22.2560 -22.2288 -22.2288 -22.0574 -22.0573
    -6.8551  -6.7590  -6.4615  -6.4428  -5.7469  -5.4389  -5.2029  -5.1118
    -4.5789  -4.5380   0.0373   0.2478   0.4103   0.9030   1.0500   1.1874
     1.5560   1.6369   1.8254   2.2487   2.2885   2.5959   2.6948   2.8577
     2.9113   3.1386   3.1624   3.3653   3.4434   3.5639   3.7533   3.8217
     3.9139   4.5758   5.5407   6.3794   6.5681   6.7036   6.8304   7.0411
     7.0974   7.4836

          k = 1.2703 0.0645-0.2971 ( 36480 PWs)   bands (ev):

   -44.1347 -44.1347 -22.2560 -22.2560 -22.2288 -22.2288 -22.0573 -22.0573
    -6.8071  -6.8071  -6.4612  -6.4612  -5.5912  -5.5912  -5.1542  -5.1542
    -4.5553  -4.5553   0.1825   0.1825   0.6047   0.6047   1.0366   1.0366
     1.5834   1.5834   2.0920   2.0920   2.4891   2.4891   2.8176   2.8176
     3.0201   3.0201   3.1856   3.1856   3.5886   3.5886   3.8542   3.8542
     4.0854   4.0854   6.0414   6.0414   6.4218   6.4218   7.0477   7.0477
     7.3062   7.3062

          k =-0.5081-0.3869 0.0000 ( 36463 PWs)   bands (ev):

   -44.1356 -44.1356 -22.2608 -22.2608 -22.2052 -22.2052 -22.0602 -22.0602
    -7.3127  -6.9133  -6.8854  -6.6833  -6.1415  -5.2576  -5.0927  -4.7171
    -4.6368  -4.4384   0.4803   0.5900   0.6675   1.2487   1.3999   1.5803
     1.6663   1.7120   2.0526   2.0938   2.2112   2.2865   2.3874   3.2642
     3.4002   3.4389   3.4591   3.5906   3.7023   3.7789   3.8344   4.0882
     4.4478   5.1365   5.5001   5.8535   6.1438   6.7493   6.7874   6.8345
     7.2978   7.5277

          k =-0.5081-0.3869 0.1485 ( 36477 PWs)   bands (ev):

   -44.1356 -44.1356 -22.2608 -22.2608 -22.2052 -22.2052 -22.0602 -22.0602
    -7.2802  -7.0483  -6.7894  -6.6945  -6.0439  -5.4953  -4.9224  -4.6783
    -4.6626  -4.4616   0.4665   0.6900   0.7597   1.0229   1.3532   1.4012
     1.6003   1.6874   2.0200   2.0725   2.3140   2.5842   2.8245   3.2219
     3.3950   3.4320   3.4716   3.5599   3.6212   3.7104   3.7936   4.1136
     4.2332   4.5422   6.0411   6.1687   6.2370   6.6357   6.7928   6.8606
     7.1374   7.4846

          k =-0.5081-0.3869-0.2971 ( 36492 PWs)   bands (ev):

   -44.1356 -44.1356 -22.2608 -22.2608 -22.2052 -22.2052 -22.0602 -22.0602
    -7.1867  -7.1867  -6.7278  -6.7278  -5.8002  -5.8002  -4.7775  -4.7775
    -4.5446  -4.5446   0.5738   0.5738   1.0467   1.0467   1.1033   1.1033
     1.6064   1.6064   2.0338   2.0338   2.7828   2.7828   3.1614   3.1614
     3.3457   3.3457   3.4312   3.4312   3.6843   3.6843   3.8042   3.8042
     4.2049   4.2049   6.2763   6.2763   6.6649   6.6649   6.7741   6.7741
     7.1441   7.1441

          k =-0.2541-0.3224 0.0000 ( 36485 PWs)   bands (ev):

   -44.1365 -44.1365 -22.2655 -22.2655 -22.1816 -22.1816 -22.0631 -22.0630
    -7.6477  -7.2323  -7.0468  -6.8073  -6.3493  -5.3542  -5.0142  -4.8277
    -4.7407  -3.9964   0.5126   0.8998   1.0711   1.2983   1.3342   1.4807
     1.9364   1.9392   2.1106   2.4473   2.5280   3.2504   3.2947   3.4582
     3.6111   3.6194   3.7455   3.8355   3.9042   4.1286   4.1552   4.2249
     4.3639   4.5925   5.9202   6.0273   6.3522   6.5830   6.7074   6.8238
     6.9218   7.0171

          k =-0.2541-0.3224 0.1485 ( 36445 PWs)   bands (ev):

   -44.1365 -44.1365 -22.2655 -22.2655 -22.1816 -22.1816 -22.0631 -22.0630
    -7.6120  -7.3541  -6.9530  -6.8210  -6.2529  -5.6298  -4.8786  -4.7622
    -4.6691  -4.0871   0.5530   0.9587   0.9961   1.1584   1.2805   1.5334
     1.8239   2.2078   2.3697   2.4525   2.5173   2.9064   3.3677   3.3981
     3.4508   3.5410   3.6841   3.8850   3.9124   4.0742   4.1688   4.2249
     4.6964   4.8713   5.8000   5.9517   6.1683   6.3554   6.6078   6.7356
     7.1477   7.2796

          k =-0.2541-0.3224-0.2971 ( 36442 PWs)   bands (ev):

   -44.1365 -44.1365 -22.2655 -22.2655 -22.1816 -22.1816 -22.0631 -22.0631
    -7.5087  -7.5087  -6.8652  -6.8652  -5.9882  -5.9882  -4.8137  -4.8137
    -4.3356  -4.3356   0.7058   0.7058   1.1946   1.1946   1.2281   1.2281
     2.2249   2.2249   2.4374   2.4374   2.6666   2.6666   3.2198   3.2198
     3.4299   3.4299   3.7938   3.7938   4.0323   4.0323   4.2054   4.2054
     5.0925   5.0925   5.6863   5.6863   6.1152   6.1152   6.6297   6.6297
     7.3734   7.3735

          k = 0.0000-0.2579 0.0000 ( 36445 PWs)   bands (ev):

   -44.1368 -44.1368 -22.2674 -22.2674 -22.1718 -22.1718 -22.0643 -22.0642
    -7.7692  -7.3429  -7.1206  -6.8500  -6.4073  -5.3983  -5.0033  -4.8699
    -4.7854  -3.8485   0.4329   0.7666   0.9008   1.1588   1.5327   1.6077
     2.3464   2.3767   2.7210   2.7346   2.9638   3.0435   3.3155   3.3487
     3.3927   3.6595   3.7076   3.9645   4.1453   4.1549   4.2100   4.6579
     4.8830   5.4300   5.7126   5.7944   5.9007   6.0901   6.3708   6.7647
     6.9673   7.1971

          k = 0.0000-0.2579 0.1485 ( 36452 PWs)   bands (ev):

   -44.1368 -44.1368 -22.2674 -22.2674 -22.1718 -22.1718 -22.0643 -22.0642
    -7.7326  -7.4671  -7.0169  -6.8648  -6.3163  -5.6849  -4.8942  -4.8039
    -4.6616  -3.9634   0.4860   0.9228   0.9468   1.0757   1.1300   1.9659
     2.1328   2.3757   2.5861   2.8457   2.9534   3.1350   3.2748   3.3357
     3.6273   3.6567   3.7816   3.9157   4.1437   4.1722   4.1913   4.6631
     4.7901   4.9928   5.8281   6.0023   6.0299   6.0629   6.5867   6.6481
     6.7944   7.1668

          k = 0.0000-0.2579-0.2971 ( 36454 PWs)   bands (ev):

   -44.1368 -44.1368 -22.2674 -22.2674 -22.1718 -22.1718 -22.0642 -22.0642
    -7.6264  -7.6264  -6.9147  -6.9147  -6.0540  -6.0540  -4.8462  -4.8462
    -4.2664  -4.2664   0.6959   0.6959   1.0161   1.0161   1.4047   1.4047
     2.4598   2.4598   2.6932   2.6932   2.9181   2.9181   3.3159   3.3159
     3.7726   3.7726   3.9643   3.9643   4.1112   4.1112   4.3996   4.3996
     4.6940   4.6940   5.9549   5.9549   6.2795   6.2795   6.4103   6.4103
     7.0299   7.0299

          k = 1.5243 0.0000 0.0000 ( 36439 PWs)   bands (ev):

   -44.1356 -44.1356 -22.2608 -22.2608 -22.2052 -22.2052 -22.0602 -22.0602
    -7.3075  -6.9125  -6.8853  -6.6875  -6.1456  -5.2572  -5.0958  -4.7186
    -4.6341  -4.4388   0.4751   0.5961   0.6606   1.2529   1.4675   1.5911
     1.6572   1.7033   2.0610   2.1116   2.2434   2.2577   2.3844   3.2176
     3.3876   3.4121   3.4698   3.6907   3.6942   3.7041   3.7677   4.1054
     4.4422   5.1350   5.4967   5.8156   6.1732   6.7131   6.8426   6.8867
     7.2513   7.5586

          k = 1.5243 0.0000 0.1485 ( 36476 PWs)   bands (ev):

   -44.1356 -44.1356 -22.2608 -22.2608 -22.2052 -22.2052 -22.0602 -22.0602
    -7.2750  -7.0449  -6.7927  -6.6992  -6.0464  -5.4951  -4.9268  -4.6778
    -4.6619  -4.4607   0.4658   0.6944   0.7541   1.0213   1.3788   1.4007
     1.6315   1.7175   2.0268   2.0598   2.3145   2.5909   2.8323   3.1767
     3.3551   3.4409   3.4546   3.6177   3.6253   3.7138   3.7199   4.1411
     4.1809   4.5450   6.0145   6.1803   6.2331   6.6061   6.8354   6.9275
     7.0894   7.4969

          k = 1.5243 0.0000-0.2971 ( 36508 PWs)   bands (ev):

   -44.1356 -44.1356 -22.2608 -22.2608 -22.2052 -22.2052 -22.0602 -22.0602
    -7.1821  -7.1821  -6.7329  -6.7329  -5.8007  -5.8007  -4.7811  -4.7811
    -4.5422  -4.5422   0.5765   0.5765   1.0459   1.0459   1.0977   1.0977
     1.6590   1.6590   2.0205   2.0205   2.8005   2.8005   3.1266   3.1266
     3.3443   3.3443   3.4275   3.4275   3.6822   3.6822   3.7967   3.7967
     4.1851   4.1851   6.2619   6.2619   6.6603   6.6603   6.7868   6.7868
     7.1582   7.1583

          k =-0.2541-0.4514 0.0000 ( 36444 PWs)   bands (ev):

   -44.1365 -44.1365 -22.2655 -22.2655 -22.1816 -22.1816 -22.0631 -22.0630
    -7.6391  -7.2309  -7.0412  -6.8144  -6.3643  -5.3549  -5.0225  -4.8287
    -4.7358  -3.9974   0.5227   0.9095   1.1885   1.3221   1.3282   1.5672
     1.9629   1.9778   2.1066   2.3633   2.4530   3.2031   3.3215   3.3881
     3.5295   3.6445   3.7672   3.8236   3.8249   4.0915   4.1274   4.1752
     4.3652   4.5777   5.9907   6.0385   6.3783   6.5688   6.7707   6.8286
     6.8393   6.9996

          k =-0.2541-0.4514 0.1485 ( 36461 PWs)   bands (ev):

   -44.1365 -44.1365 -22.2655 -22.2655 -22.1816 -22.1816 -22.0631 -22.0630
    -7.6036  -7.3485  -6.9548  -6.8286  -6.2633  -5.6308  -4.8916  -4.7600
    -4.6639  -4.0870   0.5607   0.9724   1.0031   1.2916   1.3426   1.5565
     1.8455   2.2076   2.3697   2.4019   2.4520   2.9017   3.2992   3.3229
     3.4265   3.5593   3.7301   3.8462   3.8673   3.9710   4.1638   4.1908
     4.7345   4.8343   5.7922   5.9759   6.1747   6.3322   6.6754   6.7416
     7.1279   7.2661

          k =-0.2541-0.4514-0.2971 ( 36490 PWs)   bands (ev):

   -44.1365 -44.1365 -22.2655 -22.2655 -22.1816 -22.1816 -22.0631 -22.0631
    -7.5010  -7.5010  -6.8723  -6.8723  -5.9922  -5.9922  -4.8189  -4.8189
    -4.3331  -4.3331   0.7103   0.7103   1.2283   1.2283   1.3187   1.3187
     2.2319   2.2319   2.3788   2.3788   2.6629   2.6629   3.2300   3.2300
     3.3270   3.3270   3.8121   3.8121   3.9843   3.9843   4.1724   4.1724
     5.1023   5.1023   5.6603   5.6603   6.0949   6.0949   6.6913   6.6913
     7.3577   7.3577

          k = 0.0000-0.3869 0.0000 ( 36477 PWs)   bands (ev):

   -44.1369 -44.1368 -22.2674 -22.2674 -22.1718 -22.1718 -22.0643 -22.0642
    -7.7584  -7.3412  -7.1104  -6.8595  -6.4302  -5.4002  -5.0157  -4.8708
    -4.7780  -3.8500   0.4564   0.7793   1.0544   1.2212   1.5568   1.6756
     2.3505   2.3809   2.7184   2.7537   2.9610   3.0840   3.0859   3.1111
     3.4967   3.6389   3.6803   3.9509   3.9639   4.0169   4.2100   4.6583
     4.8592   5.4003   5.7789   5.8126   5.9549   6.1339   6.4323   6.6725
     6.9677   7.1713

          k = 0.0000-0.3869 0.1485 ( 36452 PWs)   bands (ev):

   -44.1368 -44.1368 -22.2674 -22.2674 -22.1718 -22.1718 -22.0643 -22.0642
    -7.7220  -7.4599  -7.0166  -6.8745  -6.3330  -5.6874  -4.9117  -4.8002
    -4.6553  -3.9635   0.5029   0.9680   1.0183   1.1617   1.2161   1.9867
     2.1699   2.3800   2.5925   2.8532   2.9521   2.9951   3.0624   3.3253
     3.5763   3.6772   3.7570   3.9113   4.0300   4.0605   4.1375   4.6631
     4.7764   4.9886   5.8714   6.0143   6.0634   6.0795   6.5394   6.6727
     6.7965   7.1366

          k = 0.0000-0.3869-0.2971 ( 36454 PWs)   bands (ev):

   -44.1368 -44.1368 -22.2674 -22.2674 -22.1718 -22.1718 -22.0642 -22.0642
    -7.6167  -7.6167  -6.9227  -6.9227  -6.0612  -6.0612  -4.8526  -4.8526
    -4.2638  -4.2638   0.7077   0.7077   1.1519   1.1519   1.4251   1.4251
     2.4651   2.4651   2.6937   2.6937   2.9208   2.9208   3.1140   3.1140
     3.8007   3.8007   3.9471   3.9471   3.9929   3.9929   4.3817   4.3817
     4.6909   4.6909   5.9422   5.9422   6.3078   6.3078   6.4163   6.4163
     7.0031   7.0032

          k =-2.0325 0.0000 0.0000 ( 36452 PWs)   bands (ev):

   -44.1368 -44.1368 -22.2674 -22.2674 -22.1718 -22.1718 -22.0643 -22.0642
    -7.7538  -7.3405  -7.1064  -6.8629  -6.4400  -5.4010  -5.0209  -4.8702
    -4.7759  -3.8506   0.4616   0.7848   1.1715   1.2084   1.5663   1.7176
     2.3521   2.3834   2.7173   2.7621   2.9487   2.9596   3.0009   3.1069
     3.6128   3.6504   3.6687   3.8321   3.9457   3.9574   4.2099   4.6585
     4.8494   5.3916   5.8070   5.8202   5.9837   6.1473   6.4515   6.6223
     6.9679   7.1652

          k =-2.0325 0.0000 0.1485 ( 36456 PWs)   bands (ev):

   -44.1368 -44.1368 -22.2674 -22.2674 -22.1718 -22.1718 -22.0643 -22.0642
    -7.7175  -7.4570  -7.0168  -6.8783  -6.3401  -5.6884  -4.9184  -4.7990
    -4.6529  -3.9635   0.5056   0.9783   1.0444   1.2140   1.2736   1.9961
     2.1869   2.3818   2.5950   2.8567   2.8903   2.9458   2.9514   3.3603
     3.5561   3.7332   3.7466   3.9030   3.9524   4.0063   4.1348   4.6632
     4.7708   4.9881   5.8941   6.0194   6.0769   6.0775   6.5143   6.6785
     6.7974   7.1264

          k =-2.0325 0.0000-0.2971 ( 36460 PWs)   bands (ev):

   -44.1368 -44.1368 -22.2674 -22.2674 -22.1718 -22.1718 -22.0642 -22.0642
    -7.6126  -7.6126  -6.9261  -6.9261  -6.0641  -6.0641  -4.8552  -4.8552
    -4.2627  -4.2627   0.7087   0.7087   1.2247   1.2247   1.4340   1.4340
     2.4673   2.4673   2.6702   2.6702   2.9220   2.9220   3.0364   3.0364
     3.8327   3.8327   3.9342   3.9342   3.9399   3.9399   4.3749   4.3749
     4.6897   4.6897   5.9343   5.9343   6.3170   6.3170   6.4189   6.4189
     6.9906   6.9906

     the Fermi energy is     5.4759 ev

!    total energy              =   -4240.95256977 Ry

     total all-electron energy =   -150287.646264 Ry
     estimated scf accuracy    <          4.7E-11 Ry
     smearing contrib. (-TS)   =      -0.00000378 Ry
     internal energy E=F+TS    =   -4240.95256599 Ry

     The total energy is F=E-TS. E is the sum of the following terms:
     one-electron contribution =    -166.39517135 Ry
     hartree contribution      =     116.67707692 Ry
     xc contribution           =    -201.47459413 Ry
     ewald contribution        =    -222.24363836 Ry
     one-center paw contrib.   =   -3767.51623908 Ry

     convergence has been achieved in  14 iterations

     Forces acting on atoms (cartesian axes, Ry/au):

     atom    1 type  1   force =     0.00000000   -0.00549927    0.00000000
     atom    2 type  1   force =     0.00000000    0.00549927    0.00000000
     atom    3 type  2   force =     0.00000000    0.00015211    0.00000000
     atom    4 type  2   force =     0.00000000   -0.00015211    0.00000000
     atom    5 type  2   force =     0.00000000    0.00119496    0.00046165
     atom    6 type  2   force =     0.00000000   -0.00119496   -0.00046165
     atom    7 type  2   force =    -0.00000000    0.00119496   -0.00046165
     atom    8 type  2   force =    -0.00000000   -0.00119496    0.00046165
     atom    9 type  2   force =     0.00000000    0.00733286    0.00719268
     atom   10 type  2   force =     0.00000000   -0.00733286   -0.00719268
     atom   11 type  2   force =    -0.00000000    0.00733286   -0.00719268
     atom   12 type  2   force =     0.00000000   -0.00733286    0.00719268

     Total force =     0.022116     Total SCF correction =     0.000013


     Computing stress (Cartesian axis) and pressure

          total   stress  (Ry/bohr**3)                   (kbar)     P=       -1.76
  -0.00000964  -0.00000000   0.00000000           -1.42       -0.00        0.00
  -0.00000000  -0.00001017   0.00000000           -0.00       -1.50        0.00
   0.00000000   0.00000000  -0.00001605            0.00        0.00       -2.36

 
     init_run     :     35.58s CPU     37.09s WALL (       1 calls)
     electrons    :   1459.72s CPU   1474.67s WALL (       1 calls)
     forces       :      7.46s CPU      7.77s WALL (       1 calls)
     stress       :     54.49s CPU     55.17s WALL (       1 calls)

     Called by init_run:
     wfcinit      :     30.59s CPU     30.88s WALL (       1 calls)
     potinit      :      1.54s CPU      1.61s WALL (       1 calls)
     hinit0       :      1.73s CPU      2.59s WALL (       1 calls)

     Called by electrons:
     c_bands      :   1191.18s CPU   1197.45s WALL (      15 calls)
     sum_band     :    241.35s CPU    246.57s WALL (      15 calls)
     v_of_rho     :      7.15s CPU      7.68s WALL (      15 calls)
     newd         :     14.55s CPU     17.74s WALL (      15 calls)
     PAW_pot      :      5.45s CPU      5.46s WALL (      15 calls)
     mix_rho      :      1.24s CPU      1.29s WALL (      15 calls)

     Called by c_bands:
     init_us_2    :     11.83s CPU     11.88s WALL (    2079 calls)
     cegterg      :   1127.58s CPU   1133.29s WALL (     945 calls)

     Called by *egterg:
     cdiaghg      :     25.78s CPU     25.89s WALL (    7311 calls)
     h_psi        :    973.17s CPU    978.74s WALL (    7437 calls)
     s_psi        :     45.89s CPU     45.96s WALL (    7437 calls)
     g_psi        :      1.97s CPU      1.99s WALL (    6429 calls)

     Called by h_psi:
     h_psi:calbec :     38.43s CPU     38.53s WALL (    7437 calls)
     vloc_psi     :    885.60s CPU    890.93s WALL (    7437 calls)
     add_vuspsi   :     45.71s CPU     45.79s WALL (    7437 calls)

     General routines
     calbec       :     50.02s CPU     50.15s WALL (    8697 calls)
     fft          :      6.65s CPU      7.45s WALL (     219 calls)
     ffts         :      0.17s CPU      0.17s WALL (      30 calls)
     fftw         :    877.31s CPU    882.57s WALL (  363584 calls)
     interpolate  :      0.55s CPU      0.56s WALL (      15 calls)
 
     Parallel routines
     fft_scatt_xy :    239.25s CPU    240.64s WALL (  363833 calls)
     fft_scatt_yz :    154.79s CPU    156.09s WALL (  363833 calls)
 
     PWSCF        :  25m57.96s CPU  26m20.52s WALL

 
   This run was terminated on:  15:12:37  19Nov2021            

=------------------------------------------------------------------------------=
   JOB DONE.
=------------------------------------------------------------------------------=
