
     Program PWSCF v.6.7MaX starts on 19Nov2021 at 14:46:23 

     This program is part of the open-source Quantum ESPRESSO suite
     for quantum simulation of materials; please cite
         "P. Giannozzi et al., J. Phys.:Condens. Matter 21 395502 (2009);
         "P. Giannozzi et al., J. Phys.:Condens. Matter 29 465901 (2017);
          URL http://www.quantum-espresso.org", 
     in publications or presentations arising from this work. More details at
     http://www.quantum-espresso.org/quote

     Parallel version (MPI), running on    10 processors

     MPI processes distributed on     1 nodes
     R & G space division:  proc/nbgrp/npool/nimage =      10
     Waiting for input...
     Reading input from standard input

     Current dimensions of program PWSCF are:
     Max number of different atomic species (ntypx) = 10
     Max number of k-points (npk) =  40000
     Max angular momentum in pseudopotentials (lmaxx) =  3
     file Zr.pbe-spn-kjpaw_psl.1.0.0.UPF: wavefunction(s)  4S 4P renormalized
     file Te.pbe-n-kjpaw_psl.1.0.0.UPF: wavefunction(s)  5S 5P renormalized

     Subspace diagonalization in iterative solution of the eigenvalue problem:
     a serial algorithm will be used

     Message from routine setup:
     using ibrav=0 with symmetry is DISCOURAGED, use correct ibrav instead
 
     Parallelization info
     --------------------
     sticks:   dense  smooth     PW     G-vecs:    dense   smooth      PW
     Min         734     293     87               115340    29174    4753
     Max         735     295     88               115345    29176    4760
     Sum        7345    2937    873              1153415   291749   47557
 


     bravais-lattice index     =            0
     lattice parameter (alat)  =      15.5510  a.u.
     unit-cell volume          =    3018.5011 (a.u.)^3
     number of atoms/cell      =           12
     number of atomic types    =            2
     number of electrons       =        84.00
     number of Kohn-Sham states=           50
     kinetic-energy cutoff     =      80.0000  Ry
     charge density cutoff     =     800.0000  Ry
     scf convergence threshold =      1.0E-10
     mixing beta               =       0.7000
     number of iterations used =            8  plain     mixing
     Exchange-correlation= SLA  PW   PBX  PBC
                           (   1   4   3   4   0   0   0)

     celldm(1)=  15.551040  celldm(2)=   0.000000  celldm(3)=   0.000000
     celldm(4)=   0.000000  celldm(5)=   0.000000  celldm(6)=   0.000000

     crystal axes: (cart. coord. in units of alat)
               a(1) = (   0.246007  -0.969268   0.000000 )  
               a(2) = (   0.246007   0.969268   0.000000 )  
               a(3) = (   0.000000   0.000000   1.683031 )  

     reciprocal axes: (cart. coord. in units 2 pi/alat)
               b(1) = (  2.032465 -0.515853  0.000000 )  
               b(2) = (  2.032465  0.515853  0.000000 )  
               b(3) = (  0.000000  0.000000  0.594166 )  


     PseudoPot. # 1 for Zr read from file:
     pseudo/Zr.pbe-spn-kjpaw_psl.1.0.0.UPF
     MD5 check sum: 02112c41713a0468aff2bb39ef194e36
     Pseudo is Projector augmented-wave + core cor, Zval = 12.0
     Generated using &quot;atomic&quot; code by A. Dal Corso  v.6.2.2
     Shape of augmentation charge: PSQ
     Using radial grid of 1225 points,  6 beta functions with: 
                l(1) =   0
                l(2) =   0
                l(3) =   1
                l(4) =   1
                l(5) =   2
                l(6) =   2
     Q(r) pseudized with 0 coefficients 


     PseudoPot. # 2 for Te read from file:
     pseudo/Te.pbe-n-kjpaw_psl.1.0.0.UPF
     MD5 check sum: 66247bff2bd9dbf220fbb0bf5ab56e9d
     Pseudo is Projector augmented-wave + core cor, Zval =  6.0
     Generated using &quot;atomic&quot; code by A. Dal Corso  v.6.3
     Shape of augmentation charge: PSQ
     Using radial grid of 1245 points,  6 beta functions with: 
                l(1) =   0
                l(2) =   0
                l(3) =   1
                l(4) =   1
                l(5) =   2
                l(6) =   2
     Q(r) pseudized with 0 coefficients 


     atomic species   valence    mass     pseudopotential
        Zr            12.00    91.22000     Zr( 1.00)
        Te             6.00   127.60000     Te( 1.00)

      8 Sym. Ops., with inversion, found ( 4 have fractional translation)



   Cartesian axes

     site n.     atom                  positions (alat units)
         1           Zr  tau(   1) = (   0.0000000   0.6097417   0.4207578  )
         2           Zr  tau(   2) = (   0.2460067   0.3595264   1.2622733  )
         3           Te  tau(   3) = (   0.2460067   0.3343315   0.4207578  )
         4           Te  tau(   4) = (   0.0000000   0.6349366   1.2622733  )
         5           Te  tau(   5) = (   0.2460067   0.8079438   0.2507788  )
         6           Te  tau(   6) = (   0.0000000   0.1613243   1.4322523  )
         7           Te  tau(   7) = (   0.2460067   0.8079438   0.5907368  )
         8           Te  tau(   8) = (   0.0000000   0.1613243   1.0922943  )
         9           Te  tau(   9) = (   0.0000000   0.4076493   0.7239724  )
        10           Te  tau(  10) = (   0.2460067   0.5616189   0.9590586  )
        11           Te  tau(  11) = (   0.0000000   0.4076493   0.1175431  )
        12           Te  tau(  12) = (   0.2460067   0.5616189   1.5654880  )

     number of k points=    63  Methfessel-Paxton smearing, width (Ry)=  0.0030
                       cart. coord. in units 2pi/alat
        k(    1) = (   0.0000000   0.0000000   0.0000000), wk =   0.0078125
        k(    2) = (   0.0000000   0.0000000   0.1485415), wk =   0.0156250
        k(    3) = (   0.0000000   0.0000000  -0.2970830), wk =   0.0078125
        k(    4) = (   0.2540581   0.0644816   0.0000000), wk =   0.0312500
        k(    5) = (   0.2540581   0.0644816   0.1485415), wk =   0.0625000
        k(    6) = (   0.2540581   0.0644816  -0.2970830), wk =   0.0312500
        k(    7) = (   0.5081162   0.1289633   0.0000000), wk =   0.0312500
        k(    8) = (   0.5081162   0.1289633   0.1485415), wk =   0.0625000
        k(    9) = (   0.5081162   0.1289633  -0.2970830), wk =   0.0312500
        k(   10) = (   0.7621743   0.1934449   0.0000000), wk =   0.0312500
        k(   11) = (   0.7621743   0.1934449   0.1485415), wk =   0.0625000
        k(   12) = (   0.7621743   0.1934449  -0.2970830), wk =   0.0312500
        k(   13) = (  -1.0162324  -0.2579266   0.0000000), wk =   0.0156250
        k(   14) = (  -1.0162324  -0.2579266   0.1485415), wk =   0.0312500
        k(   15) = (  -1.0162324  -0.2579266  -0.2970830), wk =   0.0156250
        k(   16) = (   0.5081162   0.0000000   0.0000000), wk =   0.0156250
        k(   17) = (   0.5081162   0.0000000   0.1485415), wk =   0.0312500
        k(   18) = (   0.5081162   0.0000000  -0.2970830), wk =   0.0156250
        k(   19) = (   0.7621743   0.0644816   0.0000000), wk =   0.0312500
        k(   20) = (   0.7621743   0.0644816   0.1485415), wk =   0.0625000
        k(   21) = (   0.7621743   0.0644816  -0.2970830), wk =   0.0312500
        k(   22) = (   1.0162324   0.1289633   0.0000000), wk =   0.0312500
        k(   23) = (   1.0162324   0.1289633   0.1485415), wk =   0.0625000
        k(   24) = (   1.0162324   0.1289633  -0.2970830), wk =   0.0312500
        k(   25) = (  -0.7621743  -0.3224082   0.0000000), wk =   0.0312500
        k(   26) = (  -0.7621743  -0.3224082   0.1485415), wk =   0.0625000
        k(   27) = (  -0.7621743  -0.3224082  -0.2970830), wk =   0.0312500
        k(   28) = (  -0.5081162  -0.2579266   0.0000000), wk =   0.0312500
        k(   29) = (  -0.5081162  -0.2579266   0.1485415), wk =   0.0625000
        k(   30) = (  -0.5081162  -0.2579266  -0.2970830), wk =   0.0312500
        k(   31) = (  -0.2540581  -0.1934449   0.0000000), wk =   0.0312500
        k(   32) = (  -0.2540581  -0.1934449   0.1485415), wk =   0.0625000
        k(   33) = (  -0.2540581  -0.1934449  -0.2970830), wk =   0.0312500
        k(   34) = (   0.0000000  -0.1289633   0.0000000), wk =   0.0156250
        k(   35) = (   0.0000000  -0.1289633   0.1485415), wk =   0.0312500
        k(   36) = (   0.0000000  -0.1289633  -0.2970830), wk =   0.0156250
        k(   37) = (   1.0162324   0.0000000   0.0000000), wk =   0.0156250
        k(   38) = (   1.0162324   0.0000000   0.1485415), wk =   0.0312500
        k(   39) = (   1.0162324   0.0000000  -0.2970830), wk =   0.0156250
        k(   40) = (   1.2702905   0.0644816   0.0000000), wk =   0.0312500
        k(   41) = (   1.2702905   0.0644816   0.1485415), wk =   0.0625000
        k(   42) = (   1.2702905   0.0644816  -0.2970830), wk =   0.0312500
        k(   43) = (  -0.5081162  -0.3868899   0.0000000), wk =   0.0312500
        k(   44) = (  -0.5081162  -0.3868899   0.1485415), wk =   0.0625000
        k(   45) = (  -0.5081162  -0.3868899  -0.2970830), wk =   0.0312500
        k(   46) = (  -0.2540581  -0.3224082   0.0000000), wk =   0.0312500
        k(   47) = (  -0.2540581  -0.3224082   0.1485415), wk =   0.0625000
        k(   48) = (  -0.2540581  -0.3224082  -0.2970830), wk =   0.0312500
        k(   49) = (   0.0000000  -0.2579266   0.0000000), wk =   0.0156250
        k(   50) = (   0.0000000  -0.2579266   0.1485415), wk =   0.0312500
        k(   51) = (   0.0000000  -0.2579266  -0.2970830), wk =   0.0156250
        k(   52) = (   1.5243485   0.0000000   0.0000000), wk =   0.0156250
        k(   53) = (   1.5243485   0.0000000   0.1485415), wk =   0.0312500
        k(   54) = (   1.5243485   0.0000000  -0.2970830), wk =   0.0156250
        k(   55) = (  -0.2540581  -0.4513715   0.0000000), wk =   0.0312500
        k(   56) = (  -0.2540581  -0.4513715   0.1485415), wk =   0.0625000
        k(   57) = (  -0.2540581  -0.4513715  -0.2970830), wk =   0.0312500
        k(   58) = (   0.0000000  -0.3868899   0.0000000), wk =   0.0156250
        k(   59) = (   0.0000000  -0.3868899   0.1485415), wk =   0.0312500
        k(   60) = (   0.0000000  -0.3868899  -0.2970830), wk =   0.0156250
        k(   61) = (  -2.0324647   0.0000000   0.0000000), wk =   0.0078125
        k(   62) = (  -2.0324647   0.0000000   0.1485415), wk =   0.0156250
        k(   63) = (  -2.0324647   0.0000000  -0.2970830), wk =   0.0078125

     Dense  grid:  1153415 G-vectors     FFT dimensions: ( 144, 144, 240)

     Smooth grid:   291749 G-vectors     FFT dimensions: (  90,  90, 150)

     Estimated max dynamical RAM per process >     657.19 MB

     Estimated total dynamical RAM >       6.42 GB

     Initial potential from superposition of free atoms

     starting charge   83.99353, renormalised to   84.00000
     Starting wfcs are   66 randomized atomic wfcs
     Checking if some PAW data can be deallocated... 

     total cpu time spent up to now is       42.5 secs

     Self-consistent Calculation

     iteration #  1     ecut=    80.00 Ry     beta= 0.70
     Davidson diagonalization with overlap
     ethr =  1.00E-02,  avg # of iterations =  2.0

     Threshold (ethr) on eigenvalues was too large:
     Diagonalizing with lowered threshold

     Davidson diagonalization with overlap
     ethr =  3.88E-04,  avg # of iterations =  4.0

     total cpu time spent up to now is      202.7 secs

     total energy              =   -4240.72295095 Ry
     estimated scf accuracy    <       0.42918673 Ry

     iteration #  2     ecut=    80.00 Ry     beta= 0.70
     Davidson diagonalization with overlap
     ethr =  5.11E-04,  avg # of iterations =  7.8

     total cpu time spent up to now is      313.0 secs

     total energy              =   -4240.62780968 Ry
     estimated scf accuracy    <       2.15684478 Ry

     iteration #  3     ecut=    80.00 Ry     beta= 0.70
     Davidson diagonalization with overlap
     ethr =  5.11E-04,  avg # of iterations =  5.1

     total cpu time spent up to now is      407.1 secs

     total energy              =   -4240.92284810 Ry
     estimated scf accuracy    <       0.01913103 Ry

     iteration #  4     ecut=    80.00 Ry     beta= 0.70
     Davidson diagonalization with overlap
     c_bands:  2 eigenvalues not converged
     c_bands:  1 eigenvalues not converged
     c_bands:  1 eigenvalues not converged
     c_bands:  1 eigenvalues not converged
     c_bands:  1 eigenvalues not converged
     c_bands:  1 eigenvalues not converged
     c_bands:  1 eigenvalues not converged
     c_bands:  2 eigenvalues not converged
     ethr =  2.28E-05,  avg # of iterations = 16.6

     total cpu time spent up to now is      572.0 secs

     total energy              =   -4240.93970786 Ry
     estimated scf accuracy    <       0.10323773 Ry

     iteration #  5     ecut=    80.00 Ry     beta= 0.70
     Davidson diagonalization with overlap
     ethr =  2.28E-05,  avg # of iterations =  5.8

     total cpu time spent up to now is      657.6 secs

     total energy              =   -4240.94242699 Ry
     estimated scf accuracy    <       0.02219198 Ry

     iteration #  6     ecut=    80.00 Ry     beta= 0.70
     Davidson diagonalization with overlap
     ethr =  2.28E-05,  avg # of iterations =  2.9

     total cpu time spent up to now is      731.3 secs

     total energy              =   -4240.94370465 Ry
     estimated scf accuracy    <       0.00287055 Ry

     iteration #  7     ecut=    80.00 Ry     beta= 0.70
     Davidson diagonalization with overlap
     c_bands:  1 eigenvalues not converged
     c_bands:  1 eigenvalues not converged
     c_bands:  1 eigenvalues not converged
     c_bands:  1 eigenvalues not converged
     c_bands:  1 eigenvalues not converged
     c_bands:  1 eigenvalues not converged
     ethr =  3.42E-06,  avg # of iterations = 13.2

     total cpu time spent up to now is      855.4 secs

     total energy              =   -4240.94529528 Ry
     estimated scf accuracy    <       0.00278234 Ry

     iteration #  8     ecut=    80.00 Ry     beta= 0.70
     Davidson diagonalization with overlap
     c_bands:  1 eigenvalues not converged
     ethr =  3.31E-06,  avg # of iterations =  2.7

     total cpu time spent up to now is      924.4 secs

     total energy              =   -4240.94529746 Ry
     estimated scf accuracy    <       0.00059730 Ry

     iteration #  9     ecut=    80.00 Ry     beta= 0.70
     Davidson diagonalization with overlap
     ethr =  7.11E-07,  avg # of iterations =  6.2

     total cpu time spent up to now is     1009.2 secs

     total energy              =   -4240.94543366 Ry
     estimated scf accuracy    <       0.00000427 Ry

     iteration # 10     ecut=    80.00 Ry     beta= 0.70
     Davidson diagonalization with overlap
     c_bands:  1 eigenvalues not converged
     ethr =  5.08E-09,  avg # of iterations = 11.4

     total cpu time spent up to now is     1157.5 secs

     total energy              =   -4240.94544993 Ry
     estimated scf accuracy    <       0.00001849 Ry

     iteration # 11     ecut=    80.00 Ry     beta= 0.70
     Davidson diagonalization with overlap
     c_bands:  1 eigenvalues not converged
     ethr =  5.08E-09,  avg # of iterations =  5.5

     total cpu time spent up to now is     1249.4 secs

     total energy              =   -4240.94545285 Ry
     estimated scf accuracy    <       0.00000004 Ry

     iteration # 12     ecut=    80.00 Ry     beta= 0.70
     Davidson diagonalization with overlap
     ethr =  4.46E-11,  avg # of iterations =  9.8

     total cpu time spent up to now is     1382.8 secs

     total energy              =   -4240.94545292 Ry
     estimated scf accuracy    <       0.00000011 Ry

     iteration # 13     ecut=    80.00 Ry     beta= 0.70
     Davidson diagonalization with overlap
     ethr =  4.46E-11,  avg # of iterations =  3.7

     total cpu time spent up to now is     1464.7 secs

     total energy              =   -4240.94545293 Ry
     estimated scf accuracy    <          5.0E-09 Ry

     iteration # 14     ecut=    80.00 Ry     beta= 0.70
     Davidson diagonalization with overlap
     c_bands:  1 eigenvalues not converged
     ethr =  5.92E-12,  avg # of iterations =  7.0

     total cpu time spent up to now is     1565.4 secs

     total energy              =   -4240.94545293 Ry
     estimated scf accuracy    <          2.3E-09 Ry

     iteration # 15     ecut=    80.00 Ry     beta= 0.70
     Davidson diagonalization with overlap
     ethr =  2.79E-12,  avg # of iterations =  1.9

     total cpu time spent up to now is     1632.5 secs

     total energy              =   -4240.94545293 Ry
     estimated scf accuracy    <          6.3E-10 Ry

     iteration # 16     ecut=    80.00 Ry     beta= 0.70
     Davidson diagonalization with overlap
     ethr =  7.52E-13,  avg # of iterations =  5.8

     total cpu time spent up to now is     1698.4 secs

     End of self-consistent calculation

          k = 0.0000 0.0000 0.0000 ( 36359 PWs)   bands (ev):

   -44.1487 -44.1487 -22.2873 -22.2873 -22.1858 -22.1858 -22.0714 -22.0713
    -7.6909  -7.1521  -7.1180  -6.7946  -6.4854  -5.3521  -5.0708  -4.8880
    -4.8338  -3.8578   0.4205   0.7085   0.7631   1.0758   1.5026   1.5590
     2.4073   2.4423   2.6568   2.9602   3.0099   3.0128   3.1396   3.4911
     3.5930   3.6621   3.8830   4.0505   4.1466   4.3014   4.3238   4.6339
     5.0484   5.5472   5.5940   5.6733   5.8469   6.0109   6.3371   6.8172
     6.9448   7.2854

          k = 0.0000 0.0000 0.1485 ( 36415 PWs)   bands (ev):

   -44.1487 -44.1487 -22.2873 -22.2873 -22.1858 -22.1858 -22.0713 -22.0713
    -7.6520  -7.3570  -6.9421  -6.8055  -6.3850  -5.6923  -4.9024  -4.8446
    -4.6977  -3.9751   0.4694   0.7462   0.9110   1.0458   1.0538   1.9937
     2.1021   2.4343   2.6051   2.9737   3.0056   3.1074   3.3612   3.3680
     3.6714   3.7475   3.8696   4.0445   4.0957   4.3212   4.3378   4.6462
     4.8793   5.0480   5.7402   5.9376   6.0092   6.0307   6.6072   6.6588
     6.7755   7.2548

          k = 0.0000 0.0000-0.2971 ( 36410 PWs)   bands (ev):

   -44.1487 -44.1487 -22.2873 -22.2873 -22.1858 -22.1858 -22.0713 -22.0713
    -7.5376  -7.5376  -6.8442  -6.8442  -6.0936  -6.0936  -4.8709  -4.8709
    -4.2855  -4.2855   0.6629   0.6629   0.8742   0.8742   1.4184   1.4184
     2.5089   2.5089   2.6849   2.6849   2.9931   2.9931   3.4022   3.4022
     3.8484   3.8484   3.9375   3.9375   4.3262   4.3262   4.4141   4.4141
     4.7083   4.7083   5.9603   5.9603   6.2280   6.2280   6.3836   6.3836
     7.1247   7.1248

          k = 0.2541 0.0645 0.0000 ( 36396 PWs)   bands (ev):

   -44.1483 -44.1483 -22.2853 -22.2853 -22.1957 -22.1957 -22.0701 -22.0700
    -7.5767  -7.0734  -7.0131  -6.7481  -6.4244  -5.3139  -5.0659  -4.8466
    -4.7916  -3.9983   0.5076   0.8419   0.8977   1.1944   1.3194   1.4407
     1.9153   2.0240   2.2060   2.5360   2.5836   3.0513   3.4355   3.6818
     3.6981   3.7243   3.7709   3.7910   4.0124   4.1916   4.2333   4.2573
     4.4695   4.6715   5.7213   5.9854   6.2668   6.5493   6.6219   6.8314
     7.0052   7.1467

          k = 0.2541 0.0645 0.1485 ( 36423 PWs)   bands (ev):

   -44.1483 -44.1483 -22.2853 -22.2853 -22.1957 -22.1957 -22.0701 -22.0701
    -7.5388  -7.2540  -6.8713  -6.7576  -6.3170  -5.6373  -4.8803  -4.8044
    -4.7019  -4.0922   0.5440   0.8820   0.9771   0.9858   1.1498   1.5697
     1.8472   2.3097   2.4155   2.5413   2.5491   2.9274   3.2773   3.3070
     3.6315   3.6946   3.8648   3.9015   4.0067   4.1046   4.2469   4.2946
     4.6888   4.9952   5.8126   5.8445   6.2065   6.2710   6.4657   6.6893
     7.2523   7.3036

          k = 0.2541 0.0645-0.2971 ( 36436 PWs)   bands (ev):

   -44.1483 -44.1483 -22.2853 -22.2853 -22.1957 -22.1957 -22.0701 -22.0701
    -7.4276  -7.4276  -6.7906  -6.7906  -6.0245  -6.0245  -4.8362  -4.8362
    -4.3500  -4.3500   0.6939   0.6939   0.9842   0.9842   1.2598   1.2598
     2.2987   2.2987   2.5396   2.5396   2.6813   2.6813   3.1173   3.1173
     3.6003   3.6003   3.8815   3.8815   4.0509   4.0509   4.2929   4.2929
     5.1449   5.1449   5.7513   5.7513   6.0978   6.0978   6.4565   6.4565
     7.4374   7.4376

          k = 0.5081 0.1290 0.0000 ( 36499 PWs)   bands (ev):

   -44.1474 -44.1474 -22.2806 -22.2806 -22.2196 -22.2196 -22.0672 -22.0671
    -7.2560  -6.8883  -6.7107  -6.6188  -6.2282  -5.2401  -5.1061  -4.7379
    -4.6874  -4.4217   0.5430   0.6558   0.7052   1.1991   1.2728   1.5066
     1.6711   1.7968   2.0285   2.1001   2.1674   2.3227   2.3251   3.2851
     3.3803   3.4432   3.4804   3.5820   3.7668   3.8706   3.9319   4.1570
     4.5658   5.2543   5.4286   5.9289   5.9612   6.5532   6.5660   6.8692
     7.4036   7.5665

          k = 0.5081 0.1290 0.1485 ( 36476 PWs)   bands (ev):

   -44.1474 -44.1474 -22.2806 -22.2806 -22.2196 -22.2196 -22.0672 -22.0671
    -7.2222  -6.9851  -6.6745  -6.6249  -6.1095  -5.5058  -4.9155  -4.7156
    -4.6852  -4.4542   0.5142   0.7188   0.8365   1.0688   1.2354   1.4248
     1.4804   1.6365   2.0309   2.0798   2.3236   2.5214   2.8113   3.3111
     3.3785   3.4158   3.4881   3.5822   3.6575   3.7593   3.8459   4.2168
     4.3735   4.5668   6.0524   6.1180   6.2337   6.5581   6.6085   6.7408
     7.2449   7.4901

          k = 0.5081 0.1290-0.2971 ( 36466 PWs)   bands (ev):

   -44.1474 -44.1474 -22.2806 -22.2806 -22.2196 -22.2196 -22.0671 -22.0671
    -7.1251  -7.1251  -6.6428  -6.6428  -5.8346  -5.8346  -4.7876  -4.7876
    -4.5549  -4.5549   0.6049   0.6049   1.0812   1.0812   1.2144   1.2144
     1.3776   1.3776   2.0575   2.0575   2.7558   2.7558   3.1251   3.1251
     3.3598   3.3598   3.5507   3.5507   3.7007   3.7007   3.8268   3.8268
     4.3023   4.3023   6.2887   6.2887   6.5394   6.5394   6.7873   6.7873
     7.0996   7.0996

          k = 0.7622 0.1934 0.0000 ( 36521 PWs)   bands (ev):

   -44.1465 -44.1465 -22.2758 -22.2758 -22.2435 -22.2435 -22.0642 -22.0641
    -6.8565  -6.7243  -6.3680  -6.2543  -5.8905  -5.3151  -5.2556  -5.0675
    -4.6157  -4.5805   0.0101   0.2151   0.6321   1.1103   1.1313   1.2418
     1.4760   1.5954   1.9234   1.9829   2.2693   2.4103   2.4645   2.7596
     2.8024   3.2590   3.3096   3.3800   3.6348   3.6770   3.7774   3.7798
     3.9412   4.5665   5.7876   6.2088   6.2826   6.7309   6.7568   6.8547
     7.2298   7.5800

          k = 0.7622 0.1934 0.1485 ( 36503 PWs)   bands (ev):

   -44.1465 -44.1465 -22.2758 -22.2758 -22.2435 -22.2435 -22.0642 -22.0642
    -6.8376  -6.7432  -6.3648  -6.2971  -5.7938  -5.4224  -5.1972  -5.0866
    -4.6055  -4.5816   0.0727   0.3322   0.5072   0.9507   1.1210   1.2093
     1.4914   1.6559   1.7686   2.0787   2.1358   2.6369   2.6895   2.7978
     2.8696   3.1320   3.2724   3.3845   3.4966   3.6257   3.6656   3.9077
     3.9877   4.6691   5.4653   6.2698   6.5738   6.6307   6.7904   6.9216
     7.0059   7.4975

          k = 0.7622 0.1934-0.2971 ( 36522 PWs)   bands (ev):

   -44.1465 -44.1465 -22.2758 -22.2758 -22.2435 -22.2435 -22.0642 -22.0642
    -6.7906  -6.7906  -6.3462  -6.3462  -5.6048  -5.6048  -5.1351  -5.1351
    -4.5892  -4.5892   0.2534   0.2534   0.6599   0.6599   1.0735   1.0735
     1.5728   1.5728   1.9943   1.9943   2.3681   2.3681   2.7983   2.7983
     2.9956   2.9956   3.3755   3.3755   3.5782   3.5782   3.8155   3.8155
     4.1620   4.1620   6.0180   6.0180   6.3878   6.3878   6.8757   6.8757
     7.3366   7.3366

          k =-1.0162-0.2579 0.0000 ( 36506 PWs)   bands (ev):

   -44.1461 -44.1461 -22.2736 -22.2736 -22.2535 -22.2535 -22.0629 -22.0629
    -6.6937  -6.6736  -5.8297  -5.8185  -5.7435  -5.7327  -5.4705  -5.4698
    -4.5584  -4.5376   0.0600   0.0853   0.4039   0.4239   1.0113   1.0201
     1.4666   1.6725   2.2322   2.3643   2.3670   2.3698   2.7888   2.8180
     2.8202   2.9043   3.2546   3.2625   3.3016   3.4720   3.5860   3.6488
     3.7984   3.9725   6.4094   6.4367   6.4845   6.5680   6.9574   7.0318
     7.0439   7.0484

          k =-1.0162-0.2579 0.1485 ( 36506 PWs)   bands (ev):

   -44.1461 -44.1461 -22.2736 -22.2736 -22.2535 -22.2535 -22.0629 -22.0629
    -6.6901  -6.6759  -5.8429  -5.8342  -5.7329  -5.7266  -5.4606  -5.4606
    -4.5603  -4.5456  -0.0315  -0.0233   0.6259   0.6317   1.0225   1.0466
     1.4636   1.5850   1.9357   2.0152   2.3728   2.3856   2.7389   2.7392
     2.9469   2.9889   3.1546   3.2101   3.5515   3.5604   3.7050   3.7390
     4.0768   4.1125   5.8924   5.9029   6.4122   6.4859   6.9597   6.9950
     7.2522   7.2818

          k =-1.0162-0.2579-0.2971 ( 36528 PWs)   bands (ev):

   -44.1461 -44.1461 -22.2736 -22.2736 -22.2535 -22.2535 -22.0629 -22.0629
    -6.6823  -6.6823  -5.8507  -5.8507  -5.7237  -5.7237  -5.4511  -5.4511
    -4.5579  -4.5579  -0.0886  -0.0886   0.9152   0.9152   0.9775   0.9775
     1.5638   1.5638   1.6038   1.6038   2.3734   2.3734   2.7796   2.7796
     2.9309   2.9309   3.1820   3.1820   3.6079   3.6079   3.7824   3.7824
     4.5251   4.5251   5.3537   5.3537   6.3746   6.3746   6.9994   6.9994
     7.3289   7.3289

          k = 0.5081 0.0000 0.0000 ( 36503 PWs)   bands (ev):

   -44.1474 -44.1474 -22.2806 -22.2806 -22.2196 -22.2196 -22.0672 -22.0671
    -7.2616  -6.8901  -6.7117  -6.6123  -6.2240  -5.2409  -5.1027  -4.7334
    -4.6930  -4.4213   0.5431   0.6623   0.7006   1.1686   1.2677   1.4855
     1.6744   1.8027   2.0454   2.0869   2.1273   2.3196   2.3289   3.2686
     3.3973   3.4206   3.5368   3.5990   3.7730   3.8565   3.9760   4.1942
     4.5679   5.2538   5.4345   5.9392   5.9656   6.5133   6.5150   6.9046
     7.4283   7.5757

          k = 0.5081 0.0000 0.1485 ( 36453 PWs)   bands (ev):

   -44.1474 -44.1474 -22.2806 -22.2806 -22.2196 -22.2196 -22.0672 -22.0671
    -7.2276  -6.9892  -6.6710  -6.6185  -6.1076  -5.5064  -4.9098  -4.7175
    -4.6856  -4.4551   0.5133   0.7137   0.8412   1.0705   1.2097   1.4369
     1.4431   1.6294   2.0262   2.0853   2.3298   2.4909   2.8045   3.2984
     3.3774   3.4469   3.4944   3.5945   3.6526   3.8184   3.8412   4.2526
     4.3883   4.5657   6.0506   6.1339   6.2422   6.5076   6.5728   6.7718
     7.2694   7.4956

          k = 0.5081 0.0000-0.2971 ( 36452 PWs)   bands (ev):

   -44.1474 -44.1474 -22.2806 -22.2806 -22.2196 -22.2196 -22.0671 -22.0671
    -7.1303  -7.1303  -6.6367  -6.6367  -5.8347  -5.8347  -4.7834  -4.7834
    -4.5576  -4.5576   0.6009   0.6009   1.0813   1.0813   1.2356   1.2356
     1.3316   1.3316   2.0580   2.0580   2.7468   2.7468   3.1057   3.1057
     3.3548   3.3548   3.5937   3.5937   3.7162   3.7162   3.8296   3.8296
     4.3256   4.3256   6.3044   6.3044   6.5042   6.5042   6.8030   6.8030
     7.1013   7.1013

          k = 0.7622 0.0645 0.0000 ( 36505 PWs)   bands (ev):

   -44.1465 -44.1465 -22.2758 -22.2758 -22.2435 -22.2435 -22.0642 -22.0641
    -6.8657  -6.7224  -6.3589  -6.2565  -5.8899  -5.3107  -5.2564  -5.0670
    -4.6083  -4.5891   0.0047   0.2264   0.6547   1.1190   1.1429   1.2561
     1.4348   1.5533   1.8995   1.9976   2.2419   2.3738   2.4470   2.7322
     2.7881   3.3141   3.3377   3.3920   3.6114   3.6537   3.8007   3.8271
     3.9591   4.6075   5.7858   6.2220   6.2497   6.6999   6.8117   6.8144
     7.2510   7.5854

          k = 0.7622 0.0645 0.1485 ( 36509 PWs)   bands (ev):

   -44.1465 -44.1465 -22.2758 -22.2758 -22.2435 -22.2435 -22.0642 -22.0642
    -6.8460  -6.7439  -6.3560  -6.2955  -5.7946  -5.4223  -5.1946  -5.0857
    -4.6004  -4.5876   0.0717   0.3380   0.5167   0.9694   1.1209   1.2243
     1.4550   1.6549   1.7944   2.0057   2.0649   2.6538   2.6762   2.7716
     2.8560   3.1333   3.3365   3.4009   3.4649   3.6415   3.6867   3.9256
     4.0309   4.6678   5.4919   6.2521   6.5799   6.6236   6.8067   6.9185
     6.9843   7.5162

          k = 0.7622 0.0645-0.2971 ( 36472 PWs)   bands (ev):

   -44.1465 -44.1465 -22.2758 -22.2758 -22.2435 -22.2435 -22.0642 -22.0642
    -6.7960  -6.7960  -6.3395  -6.3395  -5.6062  -5.6062  -5.1329  -5.1329
    -4.5896  -4.5896   0.2579   0.2579   0.6551   0.6551   1.0985   1.0985
     1.5666   1.5666   1.9456   1.9456   2.3341   2.3341   2.7946   2.7946
     2.9886   2.9886   3.4404   3.4404   3.5748   3.5748   3.8055   3.8055
     4.1855   4.1855   6.0425   6.0425   6.3891   6.3891   6.8417   6.8417
     7.3632   7.3632

          k = 1.0162 0.1290 0.0000 ( 36514 PWs)   bands (ev):

   -44.1461 -44.1461 -22.2736 -22.2736 -22.2535 -22.2535 -22.0629 -22.0629
    -6.6937  -6.6736  -5.8293  -5.8189  -5.7435  -5.7327  -5.4706  -5.4697
    -4.5584  -4.5376   0.0541   0.0914   0.3986   0.4295   1.0060   1.0270
     1.4718   1.6638   2.2345   2.3554   2.3581   2.3741   2.7887   2.8134
     2.8481   2.9036   3.2398   3.2685   3.3074   3.4650   3.6060   3.6345
     3.7812   3.9844   6.4034   6.4437   6.4797   6.5737   6.9702   7.0340
     7.0412   7.0460

          k = 1.0162 0.1290 0.1485 ( 36524 PWs)   bands (ev):

   -44.1461 -44.1461 -22.2736 -22.2736 -22.2535 -22.2535 -22.0629 -22.0629
    -6.6901  -6.6759  -5.8427  -5.8344  -5.7329  -5.7267  -5.4611  -5.4601
    -4.5603  -4.5456  -0.0336  -0.0215   0.6258   0.6324   1.0263   1.0436
     1.4682   1.5814   1.9447   2.0019   2.3671   2.3814   2.6923   2.7938
     2.9623   3.0042   3.1320   3.2091   3.5330   3.5993   3.6959   3.7196
     4.0629   4.1315   5.8822   5.9156   6.4094   6.4884   6.9665   6.9937
     7.2565   7.2777

          k = 1.0162 0.1290-0.2971 ( 36516 PWs)   bands (ev):

   -44.1461 -44.1461 -22.2736 -22.2736 -22.2535 -22.2535 -22.0629 -22.0629
    -6.6823  -6.6823  -5.8507  -5.8507  -5.7237  -5.7237  -5.4511  -5.4511
    -4.5579  -4.5579  -0.0888  -0.0888   0.9142   0.9142   0.9796   0.9796
     1.5627   1.5627   1.6059   1.6059   2.3634   2.3634   2.7635   2.7635
     2.9822   2.9822   3.1548   3.1548   3.6137   3.6137   3.7757   3.7757
     4.5254   4.5254   5.3557   5.3557   6.3742   6.3742   7.0015   7.0015
     7.3290   7.3290

          k =-0.7622-0.3224 0.0000 ( 36511 PWs)   bands (ev):

   -44.1465 -44.1465 -22.2758 -22.2758 -22.2435 -22.2435 -22.0642 -22.0641
    -6.8419  -6.7283  -6.3809  -6.2511  -5.8915  -5.3212  -5.2545  -5.0681
    -4.6218  -4.5728   0.0179   0.1996   0.6017   1.0824   1.1483   1.2232
     1.4992   1.6613   1.9640   1.9729   2.3279   2.4353   2.4898   2.7956
     2.8202   3.1820   3.2854   3.3985   3.5907   3.6571   3.7552   3.8027
     3.9036   4.4995   5.7904   6.2006   6.3272   6.6750   6.7782   6.9215
     7.1929   7.5756

          k =-0.7622-0.3224 0.1485 ( 36492 PWs)   bands (ev):

   -44.1465 -44.1465 -22.2758 -22.2758 -22.2435 -22.2435 -22.0642 -22.0642
    -6.8246  -6.7432  -6.3774  -6.2996  -5.7925  -5.4225  -5.2008  -5.0879
    -4.6096  -4.5761   0.0735   0.3257   0.4928   0.9273   1.1290   1.1883
     1.5383   1.6518   1.7473   2.1844   2.2330   2.6213   2.6991   2.8263
     2.8844   3.1523   3.1878   3.3698   3.4794   3.6226   3.6561   3.8788
     3.9167   4.6695   5.4298   6.2986   6.5507   6.6369   6.7724   6.9528
     7.0312   7.4643

          k =-0.7622-0.3224-0.2971 ( 36508 PWs)   bands (ev):

   -44.1465 -44.1465 -22.2758 -22.2758 -22.2435 -22.2435 -22.0642 -22.0642
    -6.7827  -6.7827  -6.3558  -6.3558  -5.6028  -5.6028  -5.1381  -5.1381
    -4.5887  -4.5887   0.2467   0.2467   0.6666   0.6666   1.0447   1.0447
     1.5796   1.5796   2.0497   2.0497   2.4349   2.4349   2.8060   2.8060
     3.0046   3.0046   3.2845   3.2845   3.5807   3.5807   3.8166   3.8166
     4.1325   4.1325   5.9858   5.9858   6.3846   6.3846   6.9331   6.9331
     7.2913   7.2913

          k =-0.5081-0.2579 0.0000 ( 36480 PWs)   bands (ev):

   -44.1474 -44.1474 -22.2806 -22.2806 -22.2196 -22.2196 -22.0672 -22.0671
    -7.2419  -6.8846  -6.7082  -6.6342  -6.2388  -5.2384  -5.1142  -4.7449
    -4.6776  -4.4228   0.5459   0.6408   0.7085   1.2841   1.2886   1.5579
     1.6683   1.7866   2.0006   2.1351   2.2376   2.3080   2.3346   3.3260
     3.3592   3.3775   3.4732   3.5033   3.7379   3.8661   3.8805   4.0826
     4.5572   5.2527   5.4170   5.8410   6.0166   6.6524   6.6862   6.7847
     7.3362   7.5473

          k =-0.5081-0.2579 0.1485 ( 36485 PWs)   bands (ev):

   -44.1474 -44.1474 -22.2806 -22.2806 -22.2196 -22.2196 -22.0672 -22.0671
    -7.2082  -6.9751  -6.6838  -6.6403  -6.1142  -5.5044  -4.9287  -4.7123
    -4.6836  -4.4522   0.5171   0.7275   0.8250   1.0651   1.3064   1.4223
     1.5475   1.6548   2.0387   2.0727   2.3146   2.5825   2.8275   3.3173
     3.3443   3.3858   3.4824   3.5187   3.6421   3.7117   3.8296   4.1419
     4.3299   4.5681   6.0351   6.0964   6.2197   6.6575   6.6809   6.7070
     7.1814   7.4800

          k =-0.5081-0.2579-0.2971 ( 36478 PWs)   bands (ev):

   -44.1474 -44.1474 -22.2806 -22.2806 -22.2196 -22.2196 -22.0671 -22.0671
    -7.1121  -7.1121  -6.6581  -6.6581  -5.8341  -5.8341  -4.7972  -4.7972
    -4.5485  -4.5485   0.6140   0.6140   1.0805   1.0805   1.1872   1.1872
     1.4731   1.4731   2.0539   2.0539   2.7806   2.7806   3.1714   3.1714
     3.3653   3.3653   3.4295   3.4295   3.6902   3.6902   3.8147   3.8147
     4.2450   4.2450   6.2506   6.2506   6.6144   6.6144   6.7561   6.7561
     7.1013   7.1013

          k =-0.2541-0.1934 0.0000 ( 36410 PWs)   bands (ev):

   -44.1483 -44.1483 -22.2853 -22.2853 -22.1957 -22.1957 -22.0701 -22.0700
    -7.5667  -7.0649  -7.0113  -6.7603  -6.4395  -5.3134  -5.0733  -4.8542
    -4.7815  -3.9993   0.5365   0.9065   0.9145   1.2209   1.3518   1.4404
     1.9384   2.0442   2.2093   2.5017   2.5676   3.1186   3.3692   3.5869
     3.6262   3.7015   3.7662   3.8329   3.9136   4.1777   4.2126   4.2172
     4.4042   4.6506   5.7725   6.0048   6.3176   6.5983   6.6098   6.8459
     6.9968   7.0690

          k =-0.2541-0.1934 0.1485 ( 36427 PWs)   bands (ev):

   -44.1483 -44.1483 -22.2853 -22.2853 -22.1957 -22.1957 -22.0701 -22.0701
    -7.5289  -7.2450  -6.8756  -6.7696  -6.3262  -5.6371  -4.8984  -4.7990
    -4.6952  -4.0921   0.5686   0.9310   0.9967   1.0306   1.1782   1.5860
     1.8502   2.3117   2.4366   2.5131   2.5456   2.9142   3.2855   3.3465
     3.5610   3.6447   3.7350   3.8908   3.9717   4.0860   4.2051   4.2405
     4.6772   4.9799   5.7941   5.8653   6.1844   6.3291   6.5413   6.6980
     7.2092   7.2953

          k =-0.2541-0.1934-0.2971 ( 36422 PWs)   bands (ev):

   -44.1483 -44.1483 -22.2853 -22.2853 -22.1957 -22.1957 -22.0701 -22.0701
    -7.4180  -7.4180  -6.8012  -6.8012  -6.0268  -6.0268  -4.8419  -4.8419
    -4.3471  -4.3471   0.7121   0.7121   1.0493   1.0493   1.2687   1.2687
     2.2983   2.2983   2.5218   2.5218   2.6842   2.6842   3.1452   3.1452
     3.5400   3.5400   3.8064   3.8064   4.0392   4.0392   4.2369   4.2369
     5.1461   5.1461   5.7107   5.7107   6.0930   6.0930   6.5436   6.5436
     7.4118   7.4118

          k = 0.0000-0.1290 0.0000 ( 36417 PWs)   bands (ev):

   -44.1487 -44.1487 -22.2873 -22.2873 -22.1858 -22.1858 -22.0714 -22.0713
    -7.6857  -7.1466  -7.1171  -6.8013  -6.4948  -5.3521  -5.0747  -4.8937
    -4.8270  -3.8585   0.4434   0.7503   0.7684   1.0823   1.5278   1.5698
     2.4102   2.4434   2.6639   2.9587   3.0067   3.0198   3.1774   3.4586
     3.5308   3.6513   3.7932   4.0158   4.1466   4.2494   4.2734   4.6345
     5.0396   5.5043   5.6199   5.6806   5.8620   6.0557   6.3887   6.7933
     6.9453   7.2649

          k = 0.0000-0.1290 0.1485 ( 36419 PWs)   bands (ev):

   -44.1487 -44.1487 -22.2873 -22.2873 -22.1858 -22.1858 -22.0713 -22.0713
    -7.6468  -7.3522  -6.9434  -6.8120  -6.3912  -5.6925  -4.9132  -4.8407
    -4.6942  -3.9751   0.4898   0.7881   0.9250   1.0408   1.0787   2.0015
     2.1177   2.4375   2.6109   2.9722   3.0027   3.1263   3.3197   3.3606
     3.6661   3.7382   3.7826   3.9858   4.0938   4.2737   4.2905   4.6467
     4.8751   5.0359   5.7494   5.9413   6.0264   6.0534   6.5956   6.6929
     6.7764   7.2412

          k = 0.0000-0.1290-0.2971 ( 36464 PWs)   bands (ev):

   -44.1487 -44.1487 -22.2873 -22.2873 -22.1858 -22.1858 -22.0713 -22.0713
    -7.5325  -7.5325  -6.8496  -6.8496  -6.0955  -6.0955  -4.8739  -4.8739
    -4.2842  -4.2842   0.6874   0.6874   0.8943   0.8943   1.4272   1.4272
     2.5130   2.5130   2.6955   2.6955   2.9909   2.9909   3.3731   3.3731
     3.8097   3.8097   3.9315   3.9315   4.2393   4.2393   4.4273   4.4273
     4.7078   4.7078   5.9546   5.9546   6.2510   6.2510   6.3854   6.3854
     7.1266   7.1266

          k = 1.0162 0.0000 0.0000 ( 36499 PWs)   bands (ev):

   -44.1461 -44.1461 -22.2736 -22.2736 -22.2535 -22.2535 -22.0629 -22.0629
    -6.6937  -6.6736  -5.8289  -5.8193  -5.7435  -5.7327  -5.4707  -5.4696
    -4.5584  -4.5376   0.0496   0.0959   0.3947   0.4335   1.0031   1.0313
     1.4777   1.6545   2.2369   2.3423   2.3554   2.3778   2.7891   2.8084
     2.8775   2.8999   3.2328   3.2848   3.2961   3.4541   3.6227   3.6339
     3.7579   3.9952   6.3990   6.4490   6.4753   6.5789   6.9872   7.0299
     7.0362   7.0482

          k = 1.0162 0.0000 0.1485 ( 36485 PWs)   bands (ev):

   -44.1461 -44.1461 -22.2736 -22.2736 -22.2535 -22.2535 -22.0629 -22.0629
    -6.6901  -6.6759  -5.8425  -5.8347  -5.7329  -5.7267  -5.4613  -5.4599
    -4.5603  -4.5456  -0.0353  -0.0203   0.6258   0.6331   1.0344   1.0363
     1.4732   1.5773   1.9629   1.9794   2.3637   2.3755   2.6772   2.8124
     2.9785   3.0478   3.0843   3.2084   3.5284   3.6352   3.6857   3.6908
     4.0547   4.1446   5.8772   5.9233   6.4068   6.4908   6.9749   6.9907
     7.2651   7.2693

          k = 1.0162 0.0000-0.2971 ( 36514 PWs)   bands (ev):

   -44.1461 -44.1461 -22.2736 -22.2736 -22.2535 -22.2535 -22.0629 -22.0629
    -6.6823  -6.6823  -5.8507  -5.8507  -5.7237  -5.7237  -5.4511  -5.4511
    -4.5579  -4.5579  -0.0889  -0.0889   0.9131   0.9131   0.9817   0.9817
     1.5618   1.5618   1.6079   1.6079   2.3538   2.3538   2.7523   2.7523
     3.0588   3.0588   3.0971   3.0971   3.6197   3.6197   3.7686   3.7686
     4.5258   4.5258   5.3577   5.3577   6.3738   6.3738   7.0037   7.0037
     7.3291   7.3291

          k = 1.2703 0.0645 0.0000 ( 36468 PWs)   bands (ev):

   -44.1465 -44.1465 -22.2758 -22.2758 -22.2435 -22.2435 -22.0642 -22.0641
    -6.8300  -6.7326  -6.3902  -6.2489  -5.8922  -5.3256  -5.2537  -5.0685
    -4.6249  -4.5686   0.0236   0.1889   0.5811   1.0704   1.1603   1.2098
     1.5035   1.7081   1.9518   2.0202   2.3848   2.4312   2.5086   2.8198
     2.8297   3.1153   3.2997   3.4598   3.5391   3.5559   3.7483   3.8670
     3.8708   4.4420   5.7925   6.1998   6.3603   6.6167   6.8149   6.9778
     7.1574   7.5820

          k = 1.2703 0.0645 0.1485 ( 36490 PWs)   bands (ev):

   -44.1465 -44.1465 -22.2758 -22.2758 -22.2435 -22.2435 -22.0642 -22.0642
    -6.8141  -6.7441  -6.3864  -6.3014  -5.7917  -5.4227  -5.2033  -5.0888
    -4.6117  -4.5731   0.0735   0.3223   0.4818   0.9129   1.1403   1.1714
     1.5758   1.6397   1.7381   2.2620   2.3068   2.6103   2.7029   2.8403
     2.8954   3.1188   3.1918   3.3722   3.4280   3.5749   3.7344   3.8279
     3.8629   4.6688   5.4062   6.3236   6.5204   6.6404   6.7677   6.9895
     7.0462   7.4356

          k = 1.2703 0.0645-0.2971 ( 36480 PWs)   bands (ev):

   -44.1465 -44.1465 -22.2758 -22.2758 -22.2435 -22.2435 -22.0642 -22.0642
    -6.7769  -6.7769  -6.3629  -6.3629  -5.6013  -5.6013  -5.1403  -5.1403
    -4.5883  -4.5883   0.2419   0.2419   0.6713   0.6713   1.0278   1.0278
     1.5842   1.5842   2.0782   2.0782   2.4975   2.4975   2.8219   2.8219
     3.0061   3.0061   3.2112   3.2112   3.5842   3.5842   3.8081   3.8081
     4.1153   4.1153   5.9644   5.9644   6.3816   6.3816   6.9842   6.9842
     7.2499   7.2499

          k =-0.5081-0.3869 0.0000 ( 36463 PWs)   bands (ev):

   -44.1474 -44.1474 -22.2806 -22.2806 -22.2196 -22.2196 -22.0672 -22.0671
    -7.2267  -6.8821  -6.7057  -6.6488  -6.2500  -5.2366  -5.1225  -4.7490
    -4.6706  -4.4238   0.5529   0.6267   0.7016   1.2945   1.4220   1.5971
     1.6584   1.7790   1.9841   2.1765   2.2693   2.3100   2.3364   3.2378
     3.3587   3.3931   3.4051   3.5236   3.7001   3.7919   3.8419   4.0735
     4.5456   5.2448   5.4078   5.7541   6.0779   6.6995   6.7654   6.8040
     7.2499   7.5449

          k =-0.5081-0.3869 0.1485 ( 36477 PWs)   bands (ev):

   -44.1474 -44.1474 -22.2806 -22.2806 -22.2196 -22.2196 -22.0672 -22.0671
    -7.1932  -6.9648  -6.6943  -6.6560  -6.1188  -5.5030  -4.9410  -4.7108
    -4.6810  -4.4502   0.5210   0.7322   0.8122   1.0619   1.3950   1.4295
     1.5948   1.6881   2.0436   2.0760   2.3040   2.6275   2.8462   3.2038
     3.3545   3.3865   3.4256   3.5179   3.6496   3.6934   3.7736   4.1085
     4.2666   4.5689   5.9805   6.1080   6.2132   6.5948   6.7772   6.8268
     7.1025   7.4820

          k =-0.5081-0.3869-0.2971 ( 36492 PWs)   bands (ev):

   -44.1474 -44.1474 -22.2806 -22.2806 -22.2196 -22.2196 -22.0671 -22.0671
    -7.0981  -7.0981  -6.6743  -6.6743  -5.8336  -5.8336  -4.8065  -4.8065
    -4.5426  -4.5426   0.6225   0.6225   1.0789   1.0789   1.1697   1.1697
     1.5754   1.5754   2.0437   2.0437   2.8102   2.8102   3.1882   3.1882
     3.3096   3.3096   3.3943   3.3943   3.6797   3.6797   3.7994   3.7994
     4.1875   4.1875   6.2135   6.2135   6.6465   6.6465   6.7591   6.7591
     7.1151   7.1151

          k =-0.2541-0.3224 0.0000 ( 36485 PWs)   bands (ev):

   -44.1483 -44.1483 -22.2853 -22.2853 -22.1957 -22.1957 -22.0701 -22.0700
    -7.5520  -7.0534  -7.0088  -6.7764  -6.4623  -5.3126  -5.0841  -4.8594
    -4.7723  -4.0008   0.5627   0.9201   1.0399   1.2701   1.4239   1.4371
     1.9742   2.0767   2.2106   2.4228   2.5180   3.2342   3.2601   3.4038
     3.5746   3.6488   3.7359   3.8620   3.8902   4.0919   4.1737   4.1766
     4.3933   4.5993   5.8536   6.0227   6.3636   6.5631   6.6956   6.8665
     6.9322   7.0116

          k =-0.2541-0.3224 0.1485 ( 36445 PWs)   bands (ev):

   -44.1483 -44.1483 -22.2853 -22.2853 -22.1957 -22.1957 -22.0701 -22.0701
    -7.5142  -7.2319  -6.8832  -6.7862  -6.3394  -5.6368  -4.9197  -4.7950
    -4.6865  -4.0919   0.5890   0.9639   1.0307   1.1435   1.2553   1.6106
     1.8601   2.3100   2.4342   2.4570   2.5351   2.8937   3.3207   3.3567
     3.3920   3.5280   3.7225   3.8829   3.9131   4.0688   4.1213   4.1793
     4.6899   4.9474   5.7772   5.8933   6.1766   6.3314   6.6420   6.7249
     7.1584   7.2829

          k =-0.2541-0.3224-0.2971 ( 36442 PWs)   bands (ev):

   -44.1483 -44.1483 -22.2853 -22.2853 -22.1957 -22.1957 -22.0701 -22.0701
    -7.4036  -7.4036  -6.8171  -6.8171  -6.0297  -6.0297  -4.8501  -4.8501
    -4.3431  -4.3431   0.7242   0.7242   1.1777   1.1777   1.2814   1.2814
     2.2962   2.2962   2.4753   2.4753   2.6842   2.6842   3.1946   3.1946
     3.3740   3.3740   3.7928   3.7928   4.0185   4.0185   4.1622   4.1622
     5.1505   5.1505   5.6669   5.6669   6.0683   6.0683   6.6504   6.6504
     7.3791   7.3792

          k = 0.0000-0.2579 0.0000 ( 36445 PWs)   bands (ev):

   -44.1487 -44.1487 -22.2873 -22.2873 -22.1858 -22.1858 -22.0714 -22.0713
    -7.6726  -7.1334  -7.1148  -6.8169  -6.5185  -5.3522  -5.0849  -4.9012
    -4.8160  -3.8600   0.4866   0.7817   0.8647   1.1261   1.5839   1.5946
     2.4173   2.4459   2.6817   2.9550   2.9985   3.0493   3.2785   3.2880
     3.3167   3.6249   3.6965   3.9774   4.1111   4.1466   4.1468   4.6362
     5.0187   5.4429   5.6869   5.6982   5.8989   6.1223   6.4844   6.7184
     6.9465   7.2265

          k = 0.0000-0.2579 0.1485 ( 36452 PWs)   bands (ev):

   -44.1487 -44.1487 -22.2873 -22.2873 -22.1858 -22.1858 -22.0713 -22.0713
    -7.6338  -7.3403  -6.9476  -6.8274  -6.4065  -5.6929  -4.9347  -4.8353
    -4.6864  -3.9751   0.5245   0.8930   0.9672   1.0878   1.1086   2.0225
     2.1534   2.4454   2.6253   2.9684   2.9953   3.1288   3.2209   3.2570
     3.6325   3.6644   3.7155   3.9225   4.0891   4.1501   4.1767   4.6483
     4.8651   5.0192   5.7786   5.9508   6.0592   6.0831   6.5600   6.7538
     6.7785   7.2069

          k = 0.0000-0.2579-0.2971 ( 36454 PWs)   bands (ev):

   -44.1487 -44.1487 -22.2873 -22.2873 -22.1858 -22.1858 -22.0713 -22.0713
    -7.5197  -7.5197  -6.8630  -6.8630  -6.0999  -6.0999  -4.8811  -4.8811
    -4.2810  -4.2810   0.7201   0.7201   0.9831   0.9831   1.4492   1.4492
     2.5233   2.5233   2.7152   2.7152   2.9855   2.9855   3.2337   3.2337
     3.7710   3.7710   3.9169   3.9169   4.1009   4.1009   4.4186   4.4186
     4.7067   4.7067   5.9360   5.9360   6.2920   6.2920   6.3899   6.3899
     7.1145   7.1145

          k = 1.5243 0.0000 0.0000 ( 36439 PWs)   bands (ev):

   -44.1474 -44.1474 -22.2806 -22.2806 -22.2196 -22.2196 -22.0672 -22.0671
    -7.2200  -6.8816  -6.7046  -6.6545  -6.2547  -5.2359  -5.1259  -4.7502
    -4.6682  -4.4243   0.5573   0.6211   0.6957   1.2985   1.5470   1.5676
     1.6316   1.7733   1.9948   2.1969   2.2536   2.3286   2.3333   3.1878
     3.3385   3.3702   3.4182   3.6063   3.6781   3.6892   3.8350   4.0888
     4.5403   5.2386   5.4045   5.7189   6.1058   6.6632   6.8254   6.8496
     7.2030   7.5749

          k = 1.5243 0.0000 0.1485 ( 36476 PWs)   bands (ev):

   -44.1474 -44.1474 -22.2806 -22.2806 -22.2196 -22.2196 -22.0672 -22.0671
    -7.1867  -6.9605  -6.6988  -6.6626  -6.1206  -5.5025  -4.9459  -4.7105
    -4.6797  -4.4494   0.5229   0.7333   0.8063   1.0606   1.4162   1.4650
     1.5917   1.7145   2.0539   2.0739   2.2966   2.6382   2.8575   3.1541
     3.3124   3.3993   3.4101   3.5911   3.6261   3.6993   3.7050   4.1249
     4.2229   4.5692   5.9536   6.1170   6.2117   6.5658   6.8213   6.8913
     7.0538   7.4935

          k = 1.5243 0.0000-0.2971 ( 36508 PWs)   bands (ev):

   -44.1474 -44.1474 -22.2806 -22.2806 -22.2196 -22.2196 -22.0671 -22.0671
    -7.0919  -7.0919  -6.6814  -6.6814  -5.8334  -5.8334  -4.8102  -4.8102
    -4.5403  -4.5403   0.6259   0.6259   1.0780   1.0780   1.1637   1.1637
     1.6242   1.6242   2.0353   2.0353   2.8246   2.8246   3.1523   3.1523
     3.3140   3.3140   3.3966   3.3966   3.6690   3.6690   3.7935   3.7935
     4.1642   4.1642   6.1985   6.1985   6.6414   6.6414   6.7748   6.7748
     7.1262   7.1262

          k =-0.2541-0.4514 0.0000 ( 36444 PWs)   bands (ev):

   -44.1483 -44.1483 -22.2853 -22.2853 -22.1957 -22.1957 -22.0701 -22.0700
    -7.5410  -7.0459  -7.0071  -6.7866  -6.4796  -5.3120  -5.0920  -4.8609
    -4.7678  -4.0019   0.5715   0.9305   1.1539   1.3024   1.4328   1.5123
     2.0128   2.1023   2.2038   2.3331   2.4421   3.1752   3.2736   3.3369
     3.5838   3.6051   3.7479   3.7847   3.8902   4.0518   4.1385   4.1469
     4.4323   4.5394   5.9207   6.0315   6.3855   6.5323   6.7523   6.8579
     6.8815   6.9996

          k =-0.2541-0.4514 0.1485 ( 36461 PWs)   bands (ev):

   -44.1483 -44.1483 -22.2853 -22.2853 -22.1957 -22.1957 -22.0701 -22.0701
    -7.5033  -7.2222  -6.8899  -6.7975  -6.3488  -5.6364  -4.9330  -4.7934
    -4.6810  -4.0917   0.5947   0.9790   1.0417   1.2783   1.3288   1.6322
     1.8778   2.2955   2.3453   2.4394   2.5271   2.8813   3.2579   3.2733
     3.3903   3.5406   3.7537   3.8450   3.8705   3.9867   4.1154   4.1438
     4.7160   4.9138   5.7685   5.9154   6.1848   6.2931   6.7099   6.7434
     7.1314   7.2725

          k =-0.2541-0.4514-0.2971 ( 36490 PWs)   bands (ev):

   -44.1483 -44.1483 -22.2853 -22.2853 -22.1957 -22.1957 -22.0701 -22.0701
    -7.3930  -7.3930  -6.8289  -6.8289  -6.0317  -6.0317  -4.8559  -4.8559
    -4.3404  -4.3404   0.7267   0.7267   1.2824   1.2824   1.3096   1.3096
     2.2842   2.2842   2.4176   2.4176   2.6842   2.6842   3.2144   3.2144
     3.2761   3.2761   3.7953   3.7953   3.9932   3.9932   4.1219   4.1219
     5.1554   5.1554   5.6409   5.6409   6.0445   6.0445   6.7146   6.7146
     7.3587   7.3587

          k = 0.0000-0.3869 0.0000 ( 36477 PWs)   bands (ev):

   -44.1487 -44.1487 -22.2873 -22.2873 -22.1858 -22.1858 -22.0714 -22.0713
    -7.6589  -7.1204  -7.1126  -6.8308  -6.5442  -5.3522  -5.0957  -4.9039
    -4.8092  -3.8616   0.5101   0.7957   1.0216   1.1901   1.6180   1.6499
     2.4247   2.4460   2.7009   2.9513   2.9896   3.0236   3.0543   3.0966
     3.4206   3.5978   3.7074   3.9290   3.9610   4.0108   4.1464   4.6382
     4.9983   5.4086   5.7160   5.7629   5.9393   6.1614   6.5510   6.6178
     6.9475   7.2001

          k = 0.0000-0.3869 0.1485 ( 36452 PWs)   bands (ev):

   -44.1487 -44.1487 -22.2873 -22.2873 -22.1858 -22.1858 -22.0713 -22.0713
    -7.6201  -7.3279  -6.9533  -6.8421  -6.4220  -5.6932  -4.9530  -4.8325
    -4.6793  -3.9752   0.5388   0.9978   1.0050   1.1496   1.2034   2.0467
     2.1856   2.4535   2.6405   2.9432   2.9648   2.9874   2.9888   3.3071
     3.6042   3.6690   3.6924   3.9090   4.0124   4.0576   4.0841   4.6501
     4.8552   5.0121   5.8176   5.9608   6.0851   6.0864   6.5133   6.7807
     6.7910   7.1749

          k = 0.0000-0.3869-0.2971 ( 36454 PWs)   bands (ev):

   -44.1487 -44.1487 -22.2873 -22.2873 -22.1858 -22.1858 -22.0713 -22.0713
    -7.5064  -7.5064  -6.8773  -6.8773  -6.1040  -6.1040  -4.8883  -4.8883
    -4.2778  -4.2778   0.7266   0.7266   1.1269   1.1269   1.4730   1.4730
     2.5338   2.5338   2.6967   2.6967   2.9799   2.9799   3.0539   3.0539
     3.7885   3.7885   3.9021   3.9021   3.9874   3.9874   4.4043   4.4043
     4.7059   4.7059   5.9115   5.9115   6.3191   6.3191   6.3948   6.3948
     7.0889   7.0889

          k =-2.0325 0.0000 0.0000 ( 36452 PWs)   bands (ev):

   -44.1487 -44.1487 -22.2873 -22.2873 -22.1858 -22.1858 -22.0714 -22.0713
    -7.6530  -7.1152  -7.1116  -6.8359  -6.5555  -5.3522  -5.1004  -4.9041
    -4.8072  -3.8622   0.5145   0.8017   1.1338   1.1865   1.6272   1.6913
     2.4278   2.4447   2.7093   2.8790   2.9498   2.9518   2.9856   3.1231
     3.5225   3.5865   3.7273   3.8101   3.9498   3.9520   4.1463   4.6391
     4.9900   5.3987   5.7234   5.7977   5.9590   6.1732   6.5671   6.5723
     6.9478   7.1914

          k =-2.0325 0.0000 0.1485 ( 36456 PWs)   bands (ev):

   -44.1487 -44.1487 -22.2873 -22.2873 -22.1858 -22.1858 -22.0713 -22.0713
    -7.6143  -7.3226  -6.9562  -6.8479  -6.4285  -5.6933  -4.9601  -4.8317
    -4.6766  -3.9752   0.5401   1.0140   1.0352   1.1906   1.2693   2.0574
     2.1991   2.4569   2.6471   2.8250   2.8775   2.9634   2.9838   3.3606
     3.5836   3.6827   3.7050   3.8865   3.9538   4.0103   4.0820   4.6509
     4.8511   5.0109   5.8383   5.9650   6.0772   6.0971   6.4915   6.7816
     6.8007   7.1632

          k =-2.0325 0.0000-0.2971 ( 36460 PWs)   bands (ev):

   -44.1487 -44.1487 -22.2873 -22.2873 -22.1858 -22.1858 -22.0713 -22.0713
    -7.5006  -7.5006  -6.8834  -6.8834  -6.1057  -6.1057  -4.8913  -4.8913
    -4.2765  -4.2765   0.7256   0.7256   1.2035   1.2035   1.4840   1.4840
     2.5383   2.5383   2.6511   2.6511   2.9774   2.9774   2.9999   2.9999
     3.8028   3.8028   3.8959   3.8959   3.9424   3.9424   4.3988   4.3988
     4.7057   4.7057   5.8995   5.8995   6.3275   6.3275   6.3969   6.3969
     7.0765   7.0766

     the Fermi energy is     5.3586 ev

!    total energy              =   -4240.94545293 Ry

     total all-electron energy =   -150287.639148 Ry
     estimated scf accuracy    <          2.6E-12 Ry
     smearing contrib. (-TS)   =      -0.00000935 Ry
     internal energy E=F+TS    =   -4240.94544358 Ry

     The total energy is F=E-TS. E is the sum of the following terms:
     one-electron contribution =    -165.57132899 Ry
     hartree contribution      =     116.26096698 Ry
     xc contribution           =    -201.43924488 Ry
     ewald contribution        =    -222.68419219 Ry
     one-center paw contrib.   =   -3767.51164450 Ry

     convergence has been achieved in  16 iterations

     Forces acting on atoms (cartesian axes, Ry/au):

     atom    1 type  1   force =     0.00000000   -0.01376722    0.00000000
     atom    2 type  1   force =     0.00000000    0.01376722    0.00000000
     atom    3 type  2   force =     0.00000000    0.00051433    0.00000000
     atom    4 type  2   force =     0.00000000   -0.00051433    0.00000000
     atom    5 type  2   force =     0.00000000    0.00290576    0.00045993
     atom    6 type  2   force =     0.00000000   -0.00290576   -0.00045993
     atom    7 type  2   force =     0.00000000    0.00290576   -0.00045993
     atom    8 type  2   force =     0.00000000   -0.00290576    0.00045993
     atom    9 type  2   force =     0.00000000    0.01593744    0.01476956
     atom   10 type  2   force =     0.00000000   -0.01593744   -0.01476956
     atom   11 type  2   force =     0.00000000    0.01593744   -0.01476956
     atom   12 type  2   force =     0.00000000   -0.01593744    0.01476956

     Total force =     0.047987     Total SCF correction =     0.000002


     Computing stress (Cartesian axis) and pressure

          total   stress  (Ry/bohr**3)                   (kbar)     P=       -3.70
  -0.00001989   0.00000000   0.00000000           -2.93        0.00        0.00
   0.00000000  -0.00002383   0.00000000            0.00       -3.51        0.00
   0.00000000   0.00000000  -0.00003169            0.00        0.00       -4.66

 
     init_run     :     36.03s CPU     37.59s WALL (       1 calls)
     electrons    :   1638.45s CPU   1655.95s WALL (       1 calls)
     forces       :      7.04s CPU      7.26s WALL (       1 calls)
     stress       :     42.96s CPU     43.57s WALL (       1 calls)

     Called by init_run:
     wfcinit      :     31.14s CPU     31.46s WALL (       1 calls)
     potinit      :      1.41s CPU      1.46s WALL (       1 calls)
     hinit0       :      1.75s CPU      2.65s WALL (       1 calls)

     Called by electrons:
     c_bands      :   1343.92s CPU   1351.57s WALL (      17 calls)
     sum_band     :    263.27s CPU    269.11s WALL (      17 calls)
     v_of_rho     :      8.07s CPU      8.64s WALL (      17 calls)
     newd         :     16.81s CPU     20.45s WALL (      17 calls)
     PAW_pot      :      6.06s CPU      6.07s WALL (      17 calls)
     mix_rho      :      1.40s CPU      1.43s WALL (      17 calls)

     Called by c_bands:
     init_us_2    :     13.07s CPU     13.15s WALL (    2331 calls)
     cegterg      :   1271.35s CPU   1278.38s WALL (    1071 calls)

     Called by *egterg:
     cdiaghg      :     28.62s CPU     28.75s WALL (    8031 calls)
     h_psi        :   1095.14s CPU   1101.97s WALL (    8157 calls)
     s_psi        :     50.97s CPU     51.04s WALL (    8157 calls)
     g_psi        :      2.24s CPU      2.26s WALL (    7023 calls)

     Called by h_psi:
     h_psi:calbec :     42.85s CPU     42.95s WALL (    8157 calls)
     vloc_psi     :    997.67s CPU   1004.24s WALL (    8157 calls)
     add_vuspsi   :     50.66s CPU     50.74s WALL (    8157 calls)

     General routines
     calbec       :     55.71s CPU     55.85s WALL (    9543 calls)
     fft          :      7.18s CPU      8.16s WALL (     245 calls)
     ffts         :      0.19s CPU      0.19s WALL (      34 calls)
     fftw         :    975.47s CPU    981.73s WALL (  409338 calls)
     interpolate  :      0.62s CPU      0.62s WALL (      17 calls)
 
     Parallel routines
     fft_scatt_xy :    268.09s CPU    269.80s WALL (  409617 calls)
     fft_scatt_yz :    164.16s CPU    165.62s WALL (  409617 calls)
 
     PWSCF        :  28m44.79s CPU  29m 9.65s WALL

 
   This run was terminated on:  15:15:32  19Nov2021            

=------------------------------------------------------------------------------=
   JOB DONE.
=------------------------------------------------------------------------------=
