
     Program PWSCF v.6.7MaX starts on 19Nov2021 at 14:45:55 

     This program is part of the open-source Quantum ESPRESSO suite
     for quantum simulation of materials; please cite
         "P. Giannozzi et al., J. Phys.:Condens. Matter 21 395502 (2009);
         "P. Giannozzi et al., J. Phys.:Condens. Matter 29 465901 (2017);
          URL http://www.quantum-espresso.org", 
     in publications or presentations arising from this work. More details at
     http://www.quantum-espresso.org/quote

     Parallel version (MPI), running on    10 processors

     MPI processes distributed on     1 nodes
     R & G space division:  proc/nbgrp/npool/nimage =      10
     Waiting for input...
     Reading input from standard input

     Current dimensions of program PWSCF are:
     Max number of different atomic species (ntypx) = 10
     Max number of k-points (npk) =  40000
     Max angular momentum in pseudopotentials (lmaxx) =  3
     file Zr.pbe-spn-kjpaw_psl.1.0.0.UPF: wavefunction(s)  4S 4P renormalized
     file Te.pbe-n-kjpaw_psl.1.0.0.UPF: wavefunction(s)  5S 5P renormalized

     Subspace diagonalization in iterative solution of the eigenvalue problem:
     a serial algorithm will be used

     Message from routine setup:
     using ibrav=0 with symmetry is DISCOURAGED, use correct ibrav instead
 
     Parallelization info
     --------------------
     sticks:   dense  smooth     PW     G-vecs:    dense   smooth      PW
     Min         734     293     87               115340    29174    4753
     Max         735     295     88               115345    29176    4760
     Sum        7345    2937    873              1153415   291749   47557
 


     bravais-lattice index     =            0
     lattice parameter (alat)  =      15.5510  a.u.
     unit-cell volume          =    3018.5011 (a.u.)^3
     number of atoms/cell      =           12
     number of atomic types    =            2
     number of electrons       =        84.00
     number of Kohn-Sham states=           50
     kinetic-energy cutoff     =      80.0000  Ry
     charge density cutoff     =     800.0000  Ry
     scf convergence threshold =      1.0E-10
     mixing beta               =       0.7000
     number of iterations used =            8  plain     mixing
     Exchange-correlation= SLA  PW   PBX  PBC
                           (   1   4   3   4   0   0   0)

     celldm(1)=  15.551040  celldm(2)=   0.000000  celldm(3)=   0.000000
     celldm(4)=   0.000000  celldm(5)=   0.000000  celldm(6)=   0.000000

     crystal axes: (cart. coord. in units of alat)
               a(1) = (   0.246007  -0.969268   0.000000 )  
               a(2) = (   0.246007   0.969268   0.000000 )  
               a(3) = (   0.000000   0.000000   1.683031 )  

     reciprocal axes: (cart. coord. in units 2 pi/alat)
               b(1) = (  2.032465 -0.515853  0.000000 )  
               b(2) = (  2.032465  0.515853  0.000000 )  
               b(3) = (  0.000000  0.000000  0.594166 )  


     PseudoPot. # 1 for Zr read from file:
     pseudo/Zr.pbe-spn-kjpaw_psl.1.0.0.UPF
     MD5 check sum: 02112c41713a0468aff2bb39ef194e36
     Pseudo is Projector augmented-wave + core cor, Zval = 12.0
     Generated using &quot;atomic&quot; code by A. Dal Corso  v.6.2.2
     Shape of augmentation charge: PSQ
     Using radial grid of 1225 points,  6 beta functions with: 
                l(1) =   0
                l(2) =   0
                l(3) =   1
                l(4) =   1
                l(5) =   2
                l(6) =   2
     Q(r) pseudized with 0 coefficients 


     PseudoPot. # 2 for Te read from file:
     pseudo/Te.pbe-n-kjpaw_psl.1.0.0.UPF
     MD5 check sum: 66247bff2bd9dbf220fbb0bf5ab56e9d
     Pseudo is Projector augmented-wave + core cor, Zval =  6.0
     Generated using &quot;atomic&quot; code by A. Dal Corso  v.6.3
     Shape of augmentation charge: PSQ
     Using radial grid of 1245 points,  6 beta functions with: 
                l(1) =   0
                l(2) =   0
                l(3) =   1
                l(4) =   1
                l(5) =   2
                l(6) =   2
     Q(r) pseudized with 0 coefficients 


     atomic species   valence    mass     pseudopotential
        Zr            12.00    91.22000     Zr( 1.00)
        Te             6.00   127.60000     Te( 1.00)

      8 Sym. Ops., with inversion, found ( 4 have fractional translation)



   Cartesian axes

     site n.     atom                  positions (alat units)
         1           Zr  tau(   1) = (   0.0000000   0.6054814   0.4207578  )
         2           Zr  tau(   2) = (   0.2460067   0.3637867   1.2622733  )
         3           Te  tau(   3) = (   0.2460067   0.3342459   0.4207578  )
         4           Te  tau(   4) = (   0.0000000   0.6350223   1.2622733  )
         5           Te  tau(   5) = (   0.2460067   0.8098832   0.2521025  )
         6           Te  tau(   6) = (   0.0000000   0.1593850   1.4309285  )
         7           Te  tau(   7) = (   0.2460067   0.8098832   0.5894130  )
         8           Te  tau(   8) = (   0.0000000   0.1593850   1.0936181  )
         9           Te  tau(   9) = (   0.0000000   0.4151127   0.7310931  )
        10           Te  tau(  10) = (   0.2460067   0.5541554   0.9519379  )
        11           Te  tau(  11) = (   0.0000000   0.4151127   0.1104224  )
        12           Te  tau(  12) = (   0.2460067   0.5541554   1.5726087  )

     number of k points=    63  Methfessel-Paxton smearing, width (Ry)=  0.0030
                       cart. coord. in units 2pi/alat
        k(    1) = (   0.0000000   0.0000000   0.0000000), wk =   0.0078125
        k(    2) = (   0.0000000   0.0000000   0.1485415), wk =   0.0156250
        k(    3) = (   0.0000000   0.0000000  -0.2970830), wk =   0.0078125
        k(    4) = (   0.2540581   0.0644816   0.0000000), wk =   0.0312500
        k(    5) = (   0.2540581   0.0644816   0.1485415), wk =   0.0625000
        k(    6) = (   0.2540581   0.0644816  -0.2970830), wk =   0.0312500
        k(    7) = (   0.5081162   0.1289633   0.0000000), wk =   0.0312500
        k(    8) = (   0.5081162   0.1289633   0.1485415), wk =   0.0625000
        k(    9) = (   0.5081162   0.1289633  -0.2970830), wk =   0.0312500
        k(   10) = (   0.7621743   0.1934449   0.0000000), wk =   0.0312500
        k(   11) = (   0.7621743   0.1934449   0.1485415), wk =   0.0625000
        k(   12) = (   0.7621743   0.1934449  -0.2970830), wk =   0.0312500
        k(   13) = (  -1.0162324  -0.2579266   0.0000000), wk =   0.0156250
        k(   14) = (  -1.0162324  -0.2579266   0.1485415), wk =   0.0312500
        k(   15) = (  -1.0162324  -0.2579266  -0.2970830), wk =   0.0156250
        k(   16) = (   0.5081162   0.0000000   0.0000000), wk =   0.0156250
        k(   17) = (   0.5081162   0.0000000   0.1485415), wk =   0.0312500
        k(   18) = (   0.5081162   0.0000000  -0.2970830), wk =   0.0156250
        k(   19) = (   0.7621743   0.0644816   0.0000000), wk =   0.0312500
        k(   20) = (   0.7621743   0.0644816   0.1485415), wk =   0.0625000
        k(   21) = (   0.7621743   0.0644816  -0.2970830), wk =   0.0312500
        k(   22) = (   1.0162324   0.1289633   0.0000000), wk =   0.0312500
        k(   23) = (   1.0162324   0.1289633   0.1485415), wk =   0.0625000
        k(   24) = (   1.0162324   0.1289633  -0.2970830), wk =   0.0312500
        k(   25) = (  -0.7621743  -0.3224082   0.0000000), wk =   0.0312500
        k(   26) = (  -0.7621743  -0.3224082   0.1485415), wk =   0.0625000
        k(   27) = (  -0.7621743  -0.3224082  -0.2970830), wk =   0.0312500
        k(   28) = (  -0.5081162  -0.2579266   0.0000000), wk =   0.0312500
        k(   29) = (  -0.5081162  -0.2579266   0.1485415), wk =   0.0625000
        k(   30) = (  -0.5081162  -0.2579266  -0.2970830), wk =   0.0312500
        k(   31) = (  -0.2540581  -0.1934449   0.0000000), wk =   0.0312500
        k(   32) = (  -0.2540581  -0.1934449   0.1485415), wk =   0.0625000
        k(   33) = (  -0.2540581  -0.1934449  -0.2970830), wk =   0.0312500
        k(   34) = (   0.0000000  -0.1289633   0.0000000), wk =   0.0156250
        k(   35) = (   0.0000000  -0.1289633   0.1485415), wk =   0.0312500
        k(   36) = (   0.0000000  -0.1289633  -0.2970830), wk =   0.0156250
        k(   37) = (   1.0162324   0.0000000   0.0000000), wk =   0.0156250
        k(   38) = (   1.0162324   0.0000000   0.1485415), wk =   0.0312500
        k(   39) = (   1.0162324   0.0000000  -0.2970830), wk =   0.0156250
        k(   40) = (   1.2702905   0.0644816   0.0000000), wk =   0.0312500
        k(   41) = (   1.2702905   0.0644816   0.1485415), wk =   0.0625000
        k(   42) = (   1.2702905   0.0644816  -0.2970830), wk =   0.0312500
        k(   43) = (  -0.5081162  -0.3868899   0.0000000), wk =   0.0312500
        k(   44) = (  -0.5081162  -0.3868899   0.1485415), wk =   0.0625000
        k(   45) = (  -0.5081162  -0.3868899  -0.2970830), wk =   0.0312500
        k(   46) = (  -0.2540581  -0.3224082   0.0000000), wk =   0.0312500
        k(   47) = (  -0.2540581  -0.3224082   0.1485415), wk =   0.0625000
        k(   48) = (  -0.2540581  -0.3224082  -0.2970830), wk =   0.0312500
        k(   49) = (   0.0000000  -0.2579266   0.0000000), wk =   0.0156250
        k(   50) = (   0.0000000  -0.2579266   0.1485415), wk =   0.0312500
        k(   51) = (   0.0000000  -0.2579266  -0.2970830), wk =   0.0156250
        k(   52) = (   1.5243485   0.0000000   0.0000000), wk =   0.0156250
        k(   53) = (   1.5243485   0.0000000   0.1485415), wk =   0.0312500
        k(   54) = (   1.5243485   0.0000000  -0.2970830), wk =   0.0156250
        k(   55) = (  -0.2540581  -0.4513715   0.0000000), wk =   0.0312500
        k(   56) = (  -0.2540581  -0.4513715   0.1485415), wk =   0.0625000
        k(   57) = (  -0.2540581  -0.4513715  -0.2970830), wk =   0.0312500
        k(   58) = (   0.0000000  -0.3868899   0.0000000), wk =   0.0156250
        k(   59) = (   0.0000000  -0.3868899   0.1485415), wk =   0.0312500
        k(   60) = (   0.0000000  -0.3868899  -0.2970830), wk =   0.0156250
        k(   61) = (  -2.0324647   0.0000000   0.0000000), wk =   0.0078125
        k(   62) = (  -2.0324647   0.0000000   0.1485415), wk =   0.0156250
        k(   63) = (  -2.0324647   0.0000000  -0.2970830), wk =   0.0078125

     Dense  grid:  1153415 G-vectors     FFT dimensions: ( 144, 144, 240)

     Smooth grid:   291749 G-vectors     FFT dimensions: (  90,  90, 150)

     Estimated max dynamical RAM per process >     657.19 MB

     Estimated total dynamical RAM >       6.42 GB

     Initial potential from superposition of free atoms

     starting charge   83.99353, renormalised to   84.00000
     Starting wfcs are   66 randomized atomic wfcs
     Checking if some PAW data can be deallocated... 

     total cpu time spent up to now is       35.2 secs

     Self-consistent Calculation

     iteration #  1     ecut=    80.00 Ry     beta= 0.70
     Davidson diagonalization with overlap
     ethr =  1.00E-02,  avg # of iterations =  2.1

     Threshold (ethr) on eigenvalues was too large:
     Diagonalizing with lowered threshold

     Davidson diagonalization with overlap
     ethr =  4.16E-04,  avg # of iterations =  4.0

     total cpu time spent up to now is      192.2 secs

     total energy              =   -4240.73163039 Ry
     estimated scf accuracy    <       0.43487653 Ry

     iteration #  2     ecut=    80.00 Ry     beta= 0.70
     Davidson diagonalization with overlap
     ethr =  5.18E-04,  avg # of iterations =  7.7

     total cpu time spent up to now is      302.0 secs

     total energy              =   -4240.63665168 Ry
     estimated scf accuracy    <       2.06535559 Ry

     iteration #  3     ecut=    80.00 Ry     beta= 0.70
     Davidson diagonalization with overlap
     ethr =  5.18E-04,  avg # of iterations =  5.2

     total cpu time spent up to now is      395.4 secs

     total energy              =   -4240.93824737 Ry
     estimated scf accuracy    <       0.01034094 Ry

     iteration #  4     ecut=    80.00 Ry     beta= 0.70
     Davidson diagonalization with overlap
     c_bands:  1 eigenvalues not converged
     c_bands:  2 eigenvalues not converged
     c_bands:  2 eigenvalues not converged
     c_bands:  1 eigenvalues not converged
     c_bands:  2 eigenvalues not converged
     c_bands:  2 eigenvalues not converged
     c_bands:  2 eigenvalues not converged
     c_bands:  1 eigenvalues not converged
     c_bands:  1 eigenvalues not converged
     c_bands:  2 eigenvalues not converged
     c_bands:  1 eigenvalues not converged
     c_bands:  1 eigenvalues not converged
     c_bands:  1 eigenvalues not converged
     c_bands:  1 eigenvalues not converged
     c_bands:  1 eigenvalues not converged
     c_bands:  1 eigenvalues not converged
     c_bands:  1 eigenvalues not converged
     c_bands:  1 eigenvalues not converged
     c_bands:  1 eigenvalues not converged
     c_bands:  1 eigenvalues not converged
     c_bands:  1 eigenvalues not converged
     c_bands:  1 eigenvalues not converged
     c_bands:  2 eigenvalues not converged
     c_bands:  1 eigenvalues not converged
     ethr =  1.23E-05,  avg # of iterations = 17.6

     total cpu time spent up to now is      572.9 secs

     total energy              =   -4240.95037379 Ry
     estimated scf accuracy    <       0.06458515 Ry

     iteration #  5     ecut=    80.00 Ry     beta= 0.70
     Davidson diagonalization with overlap
     ethr =  1.23E-05,  avg # of iterations =  7.2

     total cpu time spent up to now is      664.4 secs

     total energy              =   -4240.95227827 Ry
     estimated scf accuracy    <       0.01228306 Ry

     iteration #  6     ecut=    80.00 Ry     beta= 0.70
     Davidson diagonalization with overlap
     ethr =  1.23E-05,  avg # of iterations =  3.4

     total cpu time spent up to now is      739.8 secs

     total energy              =   -4240.95319772 Ry
     estimated scf accuracy    <       0.00146243 Ry

     iteration #  7     ecut=    80.00 Ry     beta= 0.70
     Davidson diagonalization with overlap
     c_bands:  1 eigenvalues not converged
     c_bands:  1 eigenvalues not converged
     ethr =  1.74E-06,  avg # of iterations = 11.7

     total cpu time spent up to now is      862.9 secs

     total energy              =   -4240.95394579 Ry
     estimated scf accuracy    <       0.00158628 Ry

     iteration #  8     ecut=    80.00 Ry     beta= 0.70
     Davidson diagonalization with overlap
     ethr =  1.74E-06,  avg # of iterations =  2.4

     total cpu time spent up to now is      931.2 secs

     total energy              =   -4240.95398351 Ry
     estimated scf accuracy    <       0.00024825 Ry

     iteration #  9     ecut=    80.00 Ry     beta= 0.70
     Davidson diagonalization with overlap
     ethr =  2.96E-07,  avg # of iterations =  6.3

     total cpu time spent up to now is     1020.0 secs

     total energy              =   -4240.95406222 Ry
     estimated scf accuracy    <       0.00002758 Ry

     iteration # 10     ecut=    80.00 Ry     beta= 0.70
     Davidson diagonalization with overlap
     ethr =  3.28E-08,  avg # of iterations =  3.8

     total cpu time spent up to now is     1095.1 secs

     total energy              =   -4240.95406516 Ry
     estimated scf accuracy    <       0.00000498 Ry

     iteration # 11     ecut=    80.00 Ry     beta= 0.70
     Davidson diagonalization with overlap
     ethr =  5.93E-09,  avg # of iterations =  6.2

     total cpu time spent up to now is     1187.8 secs

     total energy              =   -4240.95406745 Ry
     estimated scf accuracy    <       0.00000119 Ry

     iteration # 12     ecut=    80.00 Ry     beta= 0.70
     Davidson diagonalization with overlap
     ethr =  1.42E-09,  avg # of iterations =  2.8

     total cpu time spent up to now is     1258.7 secs

     total energy              =   -4240.95406757 Ry
     estimated scf accuracy    <       0.00000008 Ry

     iteration # 13     ecut=    80.00 Ry     beta= 0.70
     Davidson diagonalization with overlap
     ethr =  9.67E-11,  avg # of iterations =  8.3

     total cpu time spent up to now is     1373.0 secs

     total energy              =   -4240.95406764 Ry
     estimated scf accuracy    <       0.00000010 Ry

     iteration # 14     ecut=    80.00 Ry     beta= 0.70
     Davidson diagonalization with overlap
     ethr =  9.67E-11,  avg # of iterations =  1.7

     total cpu time spent up to now is     1439.8 secs

     total energy              =   -4240.95406763 Ry
     estimated scf accuracy    <       0.00000003 Ry

     iteration # 15     ecut=    80.00 Ry     beta= 0.70
     Davidson diagonalization with overlap
     ethr =  3.39E-11,  avg # of iterations =  5.8

     total cpu time spent up to now is     1523.8 secs

     total energy              =   -4240.95406764 Ry
     estimated scf accuracy    <          1.8E-09 Ry

     iteration # 16     ecut=    80.00 Ry     beta= 0.70
     Davidson diagonalization with overlap
     ethr =  2.11E-12,  avg # of iterations =  6.3

     total cpu time spent up to now is     1611.0 secs

     total energy              =   -4240.95406764 Ry
     estimated scf accuracy    <          2.0E-09 Ry

     iteration # 17     ecut=    80.00 Ry     beta= 0.70
     Davidson diagonalization with overlap
     ethr =  2.11E-12,  avg # of iterations =  2.6

     total cpu time spent up to now is     1680.8 secs

     total energy              =   -4240.95406764 Ry
     estimated scf accuracy    <          3.5E-10 Ry

     iteration # 18     ecut=    80.00 Ry     beta= 0.70
     Davidson diagonalization with overlap
     ethr =  4.20E-13,  avg # of iterations =  6.3

     total cpu time spent up to now is     1750.7 secs

     End of self-consistent calculation

          k = 0.0000 0.0000 0.0000 ( 36359 PWs)   bands (ev):

   -44.1343 -44.1343 -22.2600 -22.2600 -22.1669 -22.1668 -22.0647 -22.0646
    -7.8741  -7.5156  -7.1299  -6.8673  -6.3005  -5.4102  -4.9214  -4.8375
    -4.7865  -3.8325   0.3365   0.7501   0.7722   1.1214   1.4464   1.5309
     2.2530   2.3316   2.5394   2.7415   2.9431   3.0102   3.2557   3.4025
     3.7038   3.8015   3.9767   4.0699   4.2518   4.3376   4.3621   4.6777
     4.8420   5.4861   5.6367   5.8416   5.8441   5.9427   6.1451   6.8267
     6.9908   7.2717

          k = 0.0000 0.0000 0.1485 ( 36415 PWs)   bands (ev):

   -44.1343 -44.1343 -22.2600 -22.2600 -22.1669 -22.1669 -22.0647 -22.0646
    -7.8398  -7.6041  -7.0502  -6.8850  -6.2241  -5.6621  -4.8370  -4.7950
    -4.6409  -3.9479   0.4031   0.8071   0.9012   1.0050   1.0799   1.9114
     2.0586   2.2798   2.4651   2.8034   2.9283   3.1143   3.3938   3.4026
     3.7084   3.8641   3.9575   4.0726   4.1890   4.3585   4.3794   4.6794
     4.7701   4.9842   5.8104   5.9444   5.9474   6.0334   6.5000   6.6333
     6.8120   7.1910

          k = 0.0000 0.0000-0.2971 ( 36410 PWs)   bands (ev):

   -44.1343 -44.1343 -22.2600 -22.2600 -22.1669 -22.1669 -22.0647 -22.0647
    -7.7421  -7.7421  -6.9440  -6.9440  -5.9966  -5.9966  -4.8155  -4.8155
    -4.2501  -4.2501   0.6194   0.6194   0.9276   0.9276   1.3579   1.3579
     2.3563   2.3563   2.6361   2.6361   2.8819   2.8819   3.5046   3.5046
     3.8948   3.8948   4.0242   4.0242   4.3475   4.3475   4.3907   4.3907
     4.6982   4.6982   5.9311   5.9311   6.2236   6.2236   6.4275   6.4275
     6.9784   6.9784

          k = 0.2541 0.0645 0.0000 ( 36396 PWs)   bands (ev):

   -44.1339 -44.1339 -22.2580 -22.2580 -22.1766 -22.1766 -22.0636 -22.0634
    -7.7556  -7.4022  -7.0594  -6.8195  -6.2389  -5.3649  -4.9394  -4.7944
    -4.7425  -3.9868   0.4223   0.8756   0.9010   1.2380   1.2544   1.4150
     1.7747   1.8486   1.9895   2.5681   2.5932   3.1672   3.3062   3.7243
     3.7527   3.7541   3.8127   3.8284   4.0287   4.2475   4.2934   4.3054
     4.4914   4.5754   5.8231   5.9786   6.2158   6.5879   6.5885   6.7449
     7.0136   7.1787

          k = 0.2541 0.0645 0.1485 ( 36423 PWs)   bands (ev):

   -44.1339 -44.1339 -22.2580 -22.2580 -22.1766 -22.1766 -22.0635 -22.0635
    -7.7220  -7.4904  -6.9847  -6.8355  -6.1606  -5.6085  -4.8108  -4.7530
    -4.6629  -4.0787   0.4769   0.9286   0.9395   0.9594   1.1875   1.4261
     1.7726   2.0698   2.2363   2.5527   2.5776   2.9508   3.3431   3.3564
     3.5617   3.7755   3.9328   3.9522   4.0311   4.1558   4.3299   4.3454
     4.6833   4.8493   5.8447   5.9336   6.1686   6.2618   6.4118   6.7426
     7.2229   7.2963

          k = 0.2541 0.0645-0.2971 ( 36436 PWs)   bands (ev):

   -44.1339 -44.1339 -22.2580 -22.2580 -22.1766 -22.1766 -22.0635 -22.0635
    -7.6261  -7.6261  -6.8885  -6.8885  -5.9336  -5.9336  -4.7785  -4.7785
    -4.3286  -4.3286   0.6519   0.6519   1.0288   1.0288   1.1667   1.1667
     2.1044   2.1044   2.4760   2.4760   2.6695   2.6695   3.1933   3.1933
     3.6341   3.6341   3.9438   3.9438   4.1116   4.1116   4.3532   4.3532
     5.0265   5.0265   5.7806   5.7806   6.1422   6.1422   6.4466   6.4466
     7.4052   7.4053

          k = 0.5081 0.1290 0.0000 ( 36499 PWs)   bands (ev):

   -44.1330 -44.1330 -22.2533 -22.2533 -22.2000 -22.2000 -22.0608 -22.0607
    -7.4157  -7.0721  -6.8925  -6.6949  -6.0509  -5.2619  -5.0561  -4.6824
    -4.6341  -4.4469   0.3906   0.5998   0.6386   1.2005   1.2295   1.4043
     1.6519   1.6964   1.9582   2.1043   2.1651   2.2574   2.4342   3.3800
     3.4659   3.5086   3.5414   3.5898   3.7724   3.8724   3.9310   4.1804
     4.4116   5.0511   5.5966   6.0589   6.1104   6.5895   6.6084   6.9545
     7.4480   7.5642

          k = 0.5081 0.1290 0.1485 ( 36476 PWs)   bands (ev):

   -44.1330 -44.1330 -22.2533 -22.2533 -22.2000 -22.2000 -22.0607 -22.0607
    -7.3843  -7.1655  -6.8227  -6.7074  -5.9722  -5.4793  -4.8883  -4.6640
    -4.6470  -4.4745   0.3987   0.6274   0.7577   0.9991   1.2540   1.3617
     1.4318   1.5632   2.0181   2.0957   2.3496   2.4569   2.8067   3.4014
     3.4223   3.4667   3.5239   3.5922   3.7131   3.7515   3.8498   4.2327
     4.3156   4.5039   6.1456   6.1839   6.3275   6.5911   6.6520   6.8197
     7.2871   7.5104

          k = 0.5081 0.1290-0.2971 ( 36466 PWs)   bands (ev):

   -44.1330 -44.1330 -22.2533 -22.2533 -22.2000 -22.2000 -22.0607 -22.0607
    -7.2947  -7.2947  -6.7477  -6.7477  -5.7608  -5.7608  -4.7418  -4.7418
    -4.5563  -4.5563   0.5056   0.5056   1.0240   1.0240   1.0904   1.0904
     1.4213   1.4213   2.0579   2.0579   2.7045   2.7045   3.1629   3.1629
     3.4007   3.4007   3.5555   3.5555   3.7148   3.7148   3.8380   3.8380
     4.3134   4.3134   6.3876   6.3876   6.5605   6.5605   6.8361   6.8361
     7.1464   7.1464

          k = 0.7622 0.1934 0.0000 ( 36521 PWs)   bands (ev):

   -44.1321 -44.1321 -22.2485 -22.2485 -22.2233 -22.2233 -22.0579 -22.0579
    -6.9449  -6.7394  -6.5615  -6.4958  -5.7760  -5.3955  -5.2101  -5.1116
    -4.5580  -4.5217   0.0156   0.0223   0.4911   1.0046   1.0279   1.2716
     1.4827   1.6033   1.9714   2.0879   2.2449   2.3505   2.4188   2.7909
     2.8958   3.2655   3.3407   3.4532   3.5872   3.6756   3.7120   3.8025
     3.8367   4.5646   5.9223   6.3329   6.3912   6.8480   6.8601   6.9466
     7.3123   7.6210

          k = 0.7622 0.1934 0.1485 ( 36503 PWs)   bands (ev):

   -44.1321 -44.1321 -22.2485 -22.2485 -22.2233 -22.2233 -22.0579 -22.0579
    -6.9218  -6.7810  -6.5461  -6.5028  -5.7192  -5.4537  -5.1929  -5.1249
    -4.5494  -4.5243   0.0076   0.2025   0.3670   0.8983   1.0038   1.2311
     1.4953   1.6236   1.9090   2.0587   2.1288   2.6202   2.6899   2.8530
     2.8906   3.0831   3.2713   3.3896   3.5268   3.6229   3.6591   3.9328
     3.9745   4.5244   5.6984   6.3532   6.6572   6.7571   6.9251   6.9830
     7.0895   7.5883

          k = 0.7622 0.1934-0.2971 ( 36522 PWs)   bands (ev):

   -44.1321 -44.1321 -22.2485 -22.2485 -22.2233 -22.2233 -22.0579 -22.0579
    -6.8593  -6.8593  -6.5214  -6.5214  -5.5866  -5.5866  -5.1576  -5.1576
    -4.5340  -4.5340   0.1450   0.1450   0.5439   0.5439   1.0827   1.0827
     1.5664   1.5664   2.0139   2.0139   2.3814   2.3814   2.8205   2.8205
     2.9878   2.9878   3.3195   3.3195   3.5957   3.5957   3.8894   3.8894
     4.0883   4.0883   6.1614   6.1614   6.4541   6.4541   6.9854   6.9854
     7.4392   7.4392

          k =-1.0162-0.2579 0.0000 ( 36506 PWs)   bands (ev):

   -44.1318 -44.1317 -22.2464 -22.2464 -22.2331 -22.2331 -22.0568 -22.0568
    -6.7161  -6.6959  -6.0071  -5.9961  -5.9558  -5.9486  -5.3256  -5.3250
    -4.5008  -4.4751  -0.0260  -0.0036   0.2947   0.3162   1.0119   1.0211
     1.4682   1.6691   2.2327   2.3914   2.4015   2.4152   2.8051   2.8054
     2.8151   2.8388   3.2107   3.2595   3.3194   3.4097   3.4919   3.7041
     3.7934   4.0882   6.5668   6.5768   6.5895   6.6542   7.0328   7.1300
     7.1359   7.1625

          k =-1.0162-0.2579 0.1485 ( 36506 PWs)   bands (ev):

   -44.1318 -44.1317 -22.2464 -22.2464 -22.2331 -22.2331 -22.0568 -22.0568
    -6.7122  -6.6979  -6.0289  -6.0209  -5.9326  -5.9276  -5.3226  -5.3222
    -4.5004  -4.4822  -0.1233  -0.1164   0.5129   0.5201   1.0097   1.0261
     1.4639   1.5948   1.9957   2.0980   2.3730   2.3981   2.6985   2.7009
     2.9391   3.0343   3.0994   3.1937   3.5554   3.5721   3.6470   3.7538
     4.0283   4.1483   6.0398   6.0567   6.4941   6.5700   7.1144   7.1364
     7.3348   7.3864

          k =-1.0162-0.2579-0.2971 ( 36528 PWs)   bands (ev):

   -44.1318 -44.1318 -22.2464 -22.2464 -22.2331 -22.2331 -22.0568 -22.0568
    -6.7041  -6.7041  -6.0404  -6.0404  -5.9158  -5.9158  -5.3195  -5.3195
    -4.4947  -4.4947  -0.1832  -0.1832   0.7619   0.7619   0.9542   0.9542
     1.5258   1.5258   1.7712   1.7712   2.3730   2.3730   2.7687   2.7687
     2.8971   2.8971   3.1654   3.1654   3.6342   3.6342   3.8049   3.8049
     4.3662   4.3662   5.6008   5.6008   6.4464   6.4464   7.1469   7.1469
     7.4420   7.4420

          k = 0.5081 0.0000 0.0000 ( 36503 PWs)   bands (ev):

   -44.1330 -44.1330 -22.2533 -22.2533 -22.2000 -22.2000 -22.0608 -22.0607
    -7.4195  -7.0728  -6.8935  -6.6910  -6.0474  -5.2620  -5.0532  -4.6768
    -4.6410  -4.4464   0.3962   0.6147   0.6180   1.1958   1.2170   1.3766
     1.6510   1.6934   1.9443   2.1113   2.1726   2.2300   2.4336   3.3704
     3.4897   3.5047   3.5748   3.5809   3.7794   3.9155   3.9270   4.2177
     4.4137   5.0468   5.6024   6.0362   6.1464   6.5512   6.5569   6.9904
     7.4625   7.5795

          k = 0.5081 0.0000 0.1485 ( 36453 PWs)   bands (ev):

   -44.1330 -44.1330 -22.2533 -22.2533 -22.2000 -22.2000 -22.0607 -22.0607
    -7.3880  -7.1678  -6.8213  -6.7036  -5.9697  -5.4791  -4.8839  -4.6656
    -4.6466  -4.4756   0.4010   0.6222   0.7585   1.0023   1.2492   1.3583
     1.3989   1.5426   2.0154   2.1055   2.3786   2.4049   2.8031   3.3947
     3.4631   3.4809   3.4915   3.6015   3.7055   3.8229   3.8370   4.2735
     4.3267   4.4961   6.1388   6.1936   6.3459   6.5431   6.6151   6.8518
     7.3073   7.5196

          k = 0.5081 0.0000-0.2971 ( 36452 PWs)   bands (ev):

   -44.1330 -44.1330 -22.2533 -22.2533 -22.2000 -22.2000 -22.0607 -22.0607
    -7.2980  -7.2980  -6.7444  -6.7444  -5.7599  -5.7599  -4.7379  -4.7379
    -4.5592  -4.5592   0.5032   0.5032   1.0249   1.0249   1.0995   1.0995
     1.3835   1.3835   2.0603   2.0603   2.6954   2.6954   3.1538   3.1538
     3.4038   3.4038   3.5710   3.5710   3.7428   3.7428   3.8366   3.8366
     4.3338   4.3338   6.4033   6.4033   6.5244   6.5244   6.8537   6.8537
     7.1474   7.1474

          k = 0.7622 0.0645 0.0000 ( 36505 PWs)   bands (ev):

   -44.1321 -44.1321 -22.2485 -22.2485 -22.2233 -22.2233 -22.0579 -22.0579
    -6.9532  -6.7371  -6.5629  -6.4883  -5.7759  -5.3924  -5.2107  -5.1109
    -4.5485  -4.5321   0.0117   0.0323   0.5060   1.0163   1.0363   1.2856
     1.4459   1.5653   1.9411   2.1069   2.2608   2.3313   2.3569   2.7657
     2.8844   3.3141   3.3606   3.4909   3.5953   3.6342   3.7038   3.8283
     3.8525   4.5975   5.9198   6.3239   6.3874   6.8320   6.9054   6.9054
     7.3278   7.6379

          k = 0.7622 0.0645 0.1485 ( 36509 PWs)   bands (ev):

   -44.1321 -44.1321 -22.2485 -22.2485 -22.2233 -22.2233 -22.0579 -22.0579
    -6.9296  -6.7827  -6.5432  -6.4953  -5.7196  -5.4527  -5.1920  -5.1240
    -4.5428  -4.5317   0.0133   0.2020   0.3761   0.8939   1.0256   1.2462
     1.4627   1.6230   1.9391   1.9914   2.0568   2.6342   2.6781   2.8417
     2.8714   3.0864   3.3248   3.3968   3.5462   3.6120   3.6539   3.9605
     3.9955   4.5210   5.7236   6.3320   6.6690   6.7575   6.9328   6.9880
     7.0633   7.6078

          k = 0.7622 0.0645-0.2971 ( 36472 PWs)   bands (ev):

   -44.1321 -44.1321 -22.2485 -22.2485 -22.2233 -22.2233 -22.0579 -22.0579
    -6.8651  -6.8651  -6.5148  -6.5148  -5.5872  -5.5872  -5.1563  -5.1563
    -4.5343  -4.5343   0.1526   0.1526   0.5370   0.5370   1.1052   1.1052
     1.5601   1.5601   1.9632   1.9632   2.3599   2.3599   2.8226   2.8226
     2.9733   2.9733   3.3779   3.3779   3.5928   3.5928   3.8761   3.8761
     4.1061   4.1061   6.1870   6.1870   6.4546   6.4546   6.9533   6.9533
     7.4667   7.4667

          k = 1.0162 0.1290 0.0000 ( 36514 PWs)   bands (ev):

   -44.1318 -44.1318 -22.2464 -22.2464 -22.2331 -22.2331 -22.0568 -22.0568
    -6.7161  -6.6959  -6.0069  -5.9963  -5.9558  -5.9486  -5.3256  -5.3250
    -4.5008  -4.4752  -0.0318   0.0023   0.2907   0.3203   1.0054   1.0287
     1.4742   1.6597   2.2315   2.3923   2.3959   2.4149   2.7975   2.8064
     2.8080   2.8706   3.2287   3.2424   3.3004   3.3978   3.5342   3.6836
     3.7788   4.1021   6.5556   6.5717   6.6012   6.6610   7.0519   7.1310
     7.1380   7.1489

          k = 1.0162 0.1290 0.1485 ( 36524 PWs)   bands (ev):

   -44.1318 -44.1318 -22.2464 -22.2464 -22.2331 -22.2331 -22.0568 -22.0568
    -6.7122  -6.6979  -6.0288  -6.0210  -5.9325  -5.9277  -5.3226  -5.3222
    -4.5004  -4.4822  -0.1255  -0.1145   0.5142   0.5193   1.0115   1.0247
     1.4693   1.5895   2.0077   2.0813   2.3729   2.3933   2.6585   2.7475
     2.9508   3.0457   3.0906   3.1846   3.5278   3.6072   3.6472   3.7451
     4.0078   4.1677   6.0325   6.0675   6.4909   6.5726   7.1196   7.1355
     7.3425   7.3794

          k = 1.0162 0.1290-0.2971 ( 36516 PWs)   bands (ev):

   -44.1318 -44.1318 -22.2464 -22.2464 -22.2331 -22.2331 -22.0568 -22.0568
    -6.7041  -6.7041  -6.0404  -6.0404  -5.9158  -5.9158  -5.3195  -5.3195
    -4.4947  -4.4947  -0.1833  -0.1833   0.7624   0.7624   0.9541   0.9541
     1.5268   1.5268   1.7720   1.7720   2.3642   2.3642   2.7527   2.7527
     2.9392   2.9392   3.1453   3.1453   3.6374   3.6374   3.8017   3.8017
     4.3667   4.3667   5.6032   5.6032   6.4459   6.4459   7.1484   7.1484
     7.4428   7.4428

          k =-0.7622-0.3224 0.0000 ( 36511 PWs)   bands (ev):

   -44.1321 -44.1321 -22.2485 -22.2485 -22.2233 -22.2233 -22.0579 -22.0579
    -6.9321  -6.7437  -6.5594  -6.5064  -5.7761  -5.3999  -5.2091  -5.1127
    -4.5655  -4.5129   0.0084   0.0213   0.4704   0.9723   1.0440   1.2542
     1.5040   1.6667   2.0333   2.0643   2.2604   2.3762   2.4488   2.8272
     2.9085   3.2087   3.3248   3.4516   3.5634   3.6486   3.6669   3.7960
     3.8810   4.5089   5.9259   6.3255   6.4278   6.7658   6.9035   7.0128
     7.2807   7.5992

          k =-0.7622-0.3224 0.1485 ( 36492 PWs)   bands (ev):

   -44.1321 -44.1321 -22.2485 -22.2485 -22.2233 -22.2233 -22.0579 -22.0579
    -6.9099  -6.7791  -6.5503  -6.5135  -5.7186  -5.4552  -5.1942  -5.1263
    -4.5546  -4.5182  -0.0010   0.2045   0.3534   0.8977   0.9887   1.2107
     1.5305   1.6284   1.8911   2.1605   2.2099   2.6065   2.6883   2.8713
     2.9078   3.1007   3.2093   3.3732   3.4754   3.6034   3.7057   3.8811
     3.9566   4.5277   5.6649   6.3872   6.6299   6.7544   6.8945   7.0266
     7.1179   7.5498

          k =-0.7622-0.3224-0.2971 ( 36508 PWs)   bands (ev):

   -44.1321 -44.1321 -22.2485 -22.2485 -22.2233 -22.2233 -22.0579 -22.0579
    -6.8505  -6.8505  -6.5312  -6.5312  -5.5858  -5.5858  -5.1596  -5.1596
    -4.5337  -4.5337   0.1344   0.1344   0.5532   0.5532   1.0563   1.0563
     1.5748   1.5748   2.0713   2.0713   2.4307   2.4307   2.8186   2.8186
     3.0093   3.0093   3.2365   3.2365   3.5939   3.5939   3.8901   3.8901
     4.0773   4.0773   6.1281   6.1281   6.4521   6.4521   7.0383   7.0383
     7.3920   7.3920

          k =-0.5081-0.2579 0.0000 ( 36480 PWs)   bands (ev):

   -44.1330 -44.1330 -22.2533 -22.2533 -22.2000 -22.2000 -22.0608 -22.0607
    -7.4061  -7.0705  -6.8909  -6.7039  -6.0595  -5.2616  -5.0630  -4.6909
    -4.6228  -4.4480   0.3777   0.5965   0.6514   1.2115   1.2695   1.4723
     1.6519   1.7126   1.9934   2.0870   2.1599   2.3029   2.4334   3.3915
     3.4011   3.4689   3.5494   3.5825   3.7506   3.7703   3.9510   4.1027
     4.4027   5.0595   5.5849   6.0175   6.1223   6.6877   6.7299   6.8694
     7.4015   7.5300

          k =-0.5081-0.2579 0.1485 ( 36485 PWs)   bands (ev):

   -44.1330 -44.1330 -22.2533 -22.2533 -22.2000 -22.2000 -22.0607 -22.0607
    -7.3750  -7.1601  -6.8264  -6.7165  -5.9784  -5.4796  -4.8987  -4.6605
    -4.6479  -4.4718   0.3933   0.6393   0.7541   0.9918   1.2713   1.3713
     1.5112   1.6224   2.0162   2.0792   2.3333   2.5219   2.8150   3.3309
     3.4198   3.4609   3.5518   3.5716   3.6150   3.7365   3.8511   4.1517
     4.2774   4.5180   6.1332   6.1839   6.2896   6.6932   6.7465   6.7581
     7.2317   7.4916

          k =-0.5081-0.2579-0.2971 ( 36478 PWs)   bands (ev):

   -44.1330 -44.1330 -22.2533 -22.2533 -22.2000 -22.2000 -22.0607 -22.0607
    -7.2866  -7.2866  -6.7559  -6.7559  -5.7630  -5.7630  -4.7508  -4.7508
    -4.5499  -4.5499   0.5112   0.5112   1.0208   1.0208   1.0750   1.0750
     1.5158   1.5158   2.0480   2.0480   2.7311   2.7311   3.1740   3.1740
     3.3850   3.3850   3.4956   3.4956   3.6878   3.6878   3.8372   3.8372
     4.2647   4.2647   6.3513   6.3513   6.6372   6.6372   6.7984   6.7984
     7.1511   7.1511

          k =-0.2541-0.1934 0.0000 ( 36410 PWs)   bands (ev):

   -44.1339 -44.1339 -22.2580 -22.2580 -22.1766 -22.1766 -22.0636 -22.0634
    -7.7490  -7.4011  -7.0537  -6.8260  -6.2519  -5.3667  -4.9476  -4.8020
    -4.7307  -3.9878   0.4479   0.8827   0.9703   1.2506   1.2664   1.4492
     1.7987   1.8730   1.9909   2.5355   2.5832   3.2302   3.2764   3.6599
     3.6910   3.7290   3.7820   3.8639   3.8891   4.1963   4.2672   4.2892
     4.3863   4.6002   5.8783   6.0077   6.2816   6.5856   6.6354   6.7614
     6.9953   7.0979

          k =-0.2541-0.1934 0.1485 ( 36427 PWs)   bands (ev):

   -44.1339 -44.1339 -22.2580 -22.2580 -22.1766 -22.1766 -22.0635 -22.0635
    -7.7156  -7.4868  -6.9835  -6.8416  -6.1708  -5.6108  -4.8289  -4.7462
    -4.6566  -4.0787   0.5005   0.9323   0.9573   1.0362   1.2212   1.4408
     1.7795   2.0729   2.2648   2.5324   2.5638   2.9352   3.3647   3.3968
     3.5711   3.6723   3.7925   3.8996   3.9849   4.1321   4.2868   4.2968
     4.6755   4.8465   5.8339   5.9571   6.1625   6.3313   6.4802   6.7440
     7.1828   7.2856

          k =-0.2541-0.1934-0.2971 ( 36422 PWs)   bands (ev):

   -44.1339 -44.1339 -22.2580 -22.2580 -22.1766 -22.1766 -22.0635 -22.0635
    -7.6206  -7.6206  -6.8925  -6.8925  -5.9388  -5.9388  -4.7832  -4.7832
    -4.3264  -4.3264   0.6708   0.6708   1.0865   1.0865   1.1772   1.1772
     2.1067   2.1067   2.4707   2.4707   2.6687   2.6687   3.2109   3.2109
     3.6151   3.6151   3.8224   3.8224   4.0912   4.0912   4.3000   4.3000
     5.0372   5.0372   5.7438   5.7438   6.1564   6.1564   6.5184   6.5184
     7.3878   7.3878

          k = 0.0000-0.1290 0.0000 ( 36417 PWs)   bands (ev):

   -44.1343 -44.1343 -22.2600 -22.2600 -22.1669 -22.1668 -22.0647 -22.0646
    -7.8706  -7.5150  -7.1260  -6.8707  -6.3087  -5.4117  -4.9265  -4.8432
    -4.7779  -3.8330   0.3553   0.7545   0.8133   1.1308   1.4576   1.5592
     2.2538   2.3316   2.5385   2.7485   2.9439   3.0148   3.2938   3.3928
     3.6541   3.7904   3.8579   4.0130   4.2519   4.2832   4.3142   4.6773
     4.8309   5.4530   5.6596   5.8492   5.8644   5.9915   6.1936   6.8231
     6.9910   7.2360

          k = 0.0000-0.1290 0.1485 ( 36419 PWs)   bands (ev):

   -44.1343 -44.1343 -22.2600 -22.2600 -22.1669 -22.1669 -22.0647 -22.0646
    -7.8364  -7.6022  -7.0488  -6.8881  -6.2308  -5.6638  -4.8473  -4.7902
    -4.6382  -3.9480   0.4211   0.8490   0.9105   1.0096   1.1002   1.9169
     2.0758   2.2807   2.4656   2.8084   2.9297   3.1225   3.3700   3.4242
     3.6991   3.8470   3.8539   3.9929   4.1863   4.3055   4.3341   4.6787
     4.7634   4.9756   5.8225   5.9627   5.9905   6.0386   6.5205   6.6306
     6.8129   7.1721

          k = 0.0000-0.1290-0.2971 ( 36464 PWs)   bands (ev):

   -44.1343 -44.1343 -22.2600 -22.2600 -22.1669 -22.1669 -22.0647 -22.0647
    -7.7392  -7.7392  -6.9456  -6.9456  -6.0003  -6.0003  -4.8179  -4.8179
    -4.2492  -4.2492   0.6397   0.6397   0.9514   0.9514   1.3648   1.3648
     2.3572   2.3572   2.6474   2.6474   2.8848   2.8848   3.4936   3.4936
     3.8384   3.8384   4.0168   4.0168   4.2515   4.2515   4.4059   4.4059
     4.6962   4.6962   5.9461   5.9461   6.2395   6.2395   6.4301   6.4301
     6.9758   6.9758

          k = 1.0162 0.0000 0.0000 ( 36499 PWs)   bands (ev):

   -44.1318 -44.1317 -22.2464 -22.2464 -22.2331 -22.2331 -22.0568 -22.0568
    -6.7161  -6.6959  -6.0067  -5.9965  -5.9558  -5.9486  -5.3256  -5.3250
    -4.5008  -4.4752  -0.0361   0.0067   0.2876   0.3235   1.0018   1.0334
     1.4810   1.6496   2.2302   2.3913   2.3934   2.4144   2.7934   2.8046
     2.8071   2.8945   3.2509   3.2517   3.2583   3.3812   3.5929   3.6437
     3.7659   4.1148   6.5484   6.5672   6.6089   6.6673   7.0813   7.1251
     7.1321   7.1400

          k = 1.0162 0.0000 0.1485 ( 36485 PWs)   bands (ev):

   -44.1318 -44.1317 -22.2464 -22.2464 -22.2331 -22.2331 -22.0568 -22.0568
    -6.7122  -6.6979  -6.0286  -6.0211  -5.9325  -5.9277  -5.3227  -5.3222
    -4.5004  -4.4822  -0.1272  -0.1132   0.5167   0.5174   1.0141   1.0224
     1.4754   1.5834   2.0311   2.0532   2.3785   2.3830   2.6450   2.7652
     2.9696   3.0650   3.0700   3.1745   3.5158   3.6186   3.6595   3.7323
     3.9913   4.1831   6.0285   6.0751   6.4879   6.5751   7.1268   7.1327
     7.3585   7.3642

          k = 1.0162 0.0000-0.2971 ( 36514 PWs)   bands (ev):

   -44.1318 -44.1318 -22.2464 -22.2464 -22.2331 -22.2331 -22.0568 -22.0568
    -6.7041  -6.7041  -6.0404  -6.0404  -5.9158  -5.9158  -5.3195  -5.3195
    -4.4947  -4.4947  -0.1835  -0.1835   0.7628   0.7628   0.9540   0.9540
     1.5278   1.5278   1.7728   1.7728   2.3557   2.3557   2.7416   2.7416
     2.9842   2.9842   3.1171   3.1171   3.6406   3.6406   3.7985   3.7985
     4.3671   4.3671   5.6055   5.6055   6.4453   6.4453   7.1499   7.1499
     7.4436   7.4436

          k = 1.2703 0.0645 0.0000 ( 36468 PWs)   bands (ev):

   -44.1321 -44.1321 -22.2485 -22.2485 -22.2233 -22.2233 -22.0579 -22.0579
    -6.9221  -6.7477  -6.5580  -6.5139  -5.7763  -5.4030  -5.2085  -5.1134
    -4.5694  -4.5081  -0.0012   0.0254   0.4559   0.9549   1.0554   1.2428
     1.5080   1.7130   2.0491   2.0957   2.2863   2.3940   2.4334   2.8548
     2.9130   3.1629   3.3524   3.4944   3.5162   3.5763   3.6539   3.7460
     3.9645   4.4583   5.9285   6.3205   6.4625   6.7065   6.9370   7.0723
     7.2446   7.5958

          k = 1.2703 0.0645 0.1485 ( 36490 PWs)   bands (ev):

   -44.1321 -44.1321 -22.2485 -22.2485 -22.2233 -22.2233 -22.0579 -22.0579
    -6.9007  -6.7783  -6.5533  -6.5214  -5.7182  -5.4562  -5.1950  -5.1272
    -4.5573  -4.5148  -0.0073   0.2069   0.3432   0.8919   0.9875   1.1974
     1.5483   1.6353   1.8849   2.2342   2.2720   2.5946   2.6748   2.8806
     2.9213   3.1286   3.1693   3.3523   3.4570   3.5557   3.7596   3.8252
     3.9529   4.5287   5.6428   6.4163   6.6004   6.7519   6.8784   7.0756
     7.1307   7.5140

          k = 1.2703 0.0645-0.2971 ( 36480 PWs)   bands (ev):

   -44.1321 -44.1321 -22.2485 -22.2485 -22.2233 -22.2233 -22.0579 -22.0579
    -6.8440  -6.8440  -6.5385  -6.5385  -5.5852  -5.5852  -5.1611  -5.1611
    -4.5334  -4.5334   0.1271   0.1271   0.5595   0.5595   1.0405   1.0405
     1.5808   1.5808   2.0999   2.0999   2.4834   2.4834   2.8201   2.8201
     3.0249   3.0249   3.1712   3.1712   3.5902   3.5902   3.8761   3.8761
     4.0818   4.0818   6.1064   6.1064   6.4501   6.4501   7.0839   7.0839
     7.3497   7.3498

          k =-0.5081-0.3869 0.0000 ( 36463 PWs)   bands (ev):

   -44.1330 -44.1330 -22.2533 -22.2533 -22.2000 -22.2000 -22.0608 -22.0607
    -7.3960  -7.0689  -6.8903  -6.7121  -6.0684  -5.2613  -5.0699  -4.6962
    -4.6146  -4.4491   0.3652   0.6064   0.6452   1.2219   1.3225   1.5526
     1.6544   1.7210   2.0314   2.0699   2.1854   2.3105   2.4282   3.2772
     3.4248   3.4687   3.4923   3.6368   3.6969   3.7416   3.8700   4.0991
     4.3904   5.0646   5.5754   5.9266   6.1886   6.7842   6.7978   6.8545
     7.3271   7.5136

          k =-0.5081-0.3869 0.1485 ( 36477 PWs)   bands (ev):

   -44.1330 -44.1330 -22.2533 -22.2533 -22.2000 -22.2000 -22.0607 -22.0607
    -7.3653  -7.1546  -6.8311  -6.7251  -5.9845  -5.4798  -4.9087  -4.6577
    -4.6484  -4.4692   0.3881   0.6511   0.7471   0.9851   1.2931   1.3811
     1.6038   1.6938   2.0035   2.0644   2.3365   2.5560   2.8244   3.2285
     3.4219   3.4560   3.4963   3.5697   3.6109   3.7287   3.8237   4.1148
     4.2197   4.5297   6.0831   6.2095   6.2671   6.6673   6.8003   6.8832
     7.1585   7.4869

          k =-0.5081-0.3869-0.2971 ( 36492 PWs)   bands (ev):

   -44.1330 -44.1330 -22.2533 -22.2533 -22.2000 -22.2000 -22.0607 -22.0607
    -7.2783  -7.2783  -6.7644  -6.7644  -5.7650  -5.7650  -4.7595  -4.7595
    -4.5440  -4.5440   0.5163   0.5163   1.0165   1.0165   1.0646   1.0646
     1.6251   1.6251   2.0262   2.0262   2.7671   2.7671   3.1418   3.1418
     3.3617   3.3617   3.4550   3.4550   3.6832   3.6832   3.8313   3.8313
     4.2189   4.2189   6.3168   6.3168   6.6763   6.6763   6.7874   6.7874
     7.1720   7.1720

          k =-0.2541-0.3224 0.0000 ( 36485 PWs)   bands (ev):

   -44.1339 -44.1339 -22.2581 -22.2580 -22.1766 -22.1766 -22.0636 -22.0634
    -7.7394  -7.3995  -7.0463  -6.8341  -6.2708  -5.3690  -4.9599  -4.8058
    -4.7200  -3.9891   0.4736   0.8942   1.0908   1.2428   1.3150   1.5206
     1.8349   1.9096   1.9917   2.4627   2.5395   3.2402   3.3364   3.4928
     3.6024   3.6521   3.7468   3.8178   3.9288   4.1454   4.1505   4.2560
     4.3344   4.6084   5.9655   6.0352   6.3429   6.5839   6.7051   6.7857
     6.9207   7.0274

          k =-0.2541-0.3224 0.1485 ( 36445 PWs)   bands (ev):

   -44.1339 -44.1339 -22.2580 -22.2580 -22.1766 -22.1766 -22.0635 -22.0635
    -7.7064  -7.4817  -6.9825  -6.8496  -6.1855  -5.6138  -4.8494  -4.7407
    -4.6488  -4.0787   0.5233   0.9418   0.9768   1.1656   1.2947   1.4644
     1.7966   2.0764   2.3077   2.4661   2.5270   2.9233   3.3867   3.4408
     3.4901   3.5440   3.6665   3.8913   3.9151   4.0829   4.2011   4.2572
     4.6988   4.8257   5.8224   5.9901   6.1600   6.3663   6.5776   6.7457
     7.1426   7.2677

          k =-0.2541-0.3224-0.2971 ( 36442 PWs)   bands (ev):

   -44.1339 -44.1339 -22.2580 -22.2580 -22.1766 -22.1766 -22.0635 -22.0635
    -7.6126  -7.6126  -6.8984  -6.8984  -5.9461  -5.9461  -4.7898  -4.7898
    -4.3233  -4.3233   0.6872   0.6872   1.1631   1.1631   1.2271   1.2271
     2.1127   2.1127   2.4440   2.4440   2.6638   2.6638   3.2379   3.2379
     3.4696   3.4696   3.7962   3.7962   4.0431   4.0431   4.2369   4.2369
     5.0530   5.0530   5.7034   5.7034   6.1456   6.1456   6.6142   6.6142
     7.3665   7.3665

          k = 0.0000-0.2579 0.0000 ( 36445 PWs)   bands (ev):

   -44.1343 -44.1343 -22.2600 -22.2600 -22.1669 -22.1668 -22.0647 -22.0646
    -7.8621  -7.5136  -7.1167  -6.8784  -6.3291  -5.4152  -4.9408  -4.8473
    -4.7651  -3.8344   0.3922   0.7655   0.9243   1.1793   1.4835   1.6210
     2.2557   2.3331   2.5364   2.7663   2.9456   3.0357   3.3176   3.3983
     3.4459   3.6485   3.7633   3.9584   4.1547   4.1790   4.2521   4.6764
     4.8044   5.4060   5.7166   5.8676   5.9167   6.0673   6.2815   6.7876
     6.9912   7.1720

          k = 0.0000-0.2579 0.1485 ( 36452 PWs)   bands (ev):

   -44.1343 -44.1343 -22.2600 -22.2600 -22.1669 -22.1669 -22.0647 -22.0646
    -7.8282  -7.5976  -7.0456  -6.8952  -6.2472  -5.6680  -4.8671  -4.7834
    -4.6323  -3.9482   0.4546   0.9257   0.9548   1.0580   1.1490   1.9323
     2.1160   2.2827   2.4666   2.8212   2.9329   3.1231   3.3064   3.3905
     3.6318   3.6590   3.8290   3.9118   4.1794   4.1809   4.2131   4.6774
     4.7473   4.9661   5.8589   6.0091   6.0462   6.0514   6.5558   6.6093
     6.8151   7.1294

          k = 0.0000-0.2579-0.2971 ( 36454 PWs)   bands (ev):

   -44.1343 -44.1343 -22.2600 -22.2600 -22.1669 -22.1669 -22.0647 -22.0647
    -7.7320  -7.7320  -6.9498  -6.9498  -6.0092  -6.0092  -4.8235  -4.8235
    -4.2470  -4.2470   0.6736   0.6736   1.0367   1.0367   1.3824   1.3824
     2.3592   2.3592   2.6723   2.6723   2.8920   2.8920   3.3724   3.3724
     3.7746   3.7746   3.9986   3.9986   4.1173   4.1173   4.3865   4.3865
     4.6915   4.6915   5.9608   5.9608   6.2744   6.2744   6.4365   6.4365
     6.9568   6.9568

          k = 1.5243 0.0000 0.0000 ( 36439 PWs)   bands (ev):

   -44.1330 -44.1330 -22.2533 -22.2533 -22.2000 -22.2000 -22.0608 -22.0607
    -7.3918  -7.0682  -6.8904  -6.7151  -6.0722  -5.2612  -5.0728  -4.6978
    -4.6117  -4.4496   0.3602   0.6225   0.6291   1.2261   1.3476   1.6002
     1.6793   1.6837   2.0482   2.0686   2.2342   2.2719   2.4245   3.2331
     3.4198   3.4379   3.5010   3.6986   3.7191   3.7220   3.7542   4.1181
     4.3847   5.0654   5.5720   5.8883   6.2188   6.7481   6.8506   6.9104
     7.2818   7.5477

          k = 1.5243 0.0000 0.1485 ( 36476 PWs)   bands (ev):

   -44.1330 -44.1330 -22.2533 -22.2533 -22.2000 -22.2000 -22.0607 -22.0607
    -7.3612  -7.1523  -6.8333  -6.7286  -5.9871  -5.4799  -4.9127  -4.6569
    -4.6483  -4.4681   0.3860   0.6563   0.7428   0.9825   1.3029   1.3851
     1.6572   1.7179   2.0062   2.0458   2.3455   2.5575   2.8291   3.1870
     3.3831   3.4618   3.4795   3.5937   3.6375   3.7202   3.7752   4.1533
     4.1583   4.5343   6.0573   6.2226   6.2615   6.6374   6.8416   6.9515
     7.1113   7.5008

          k = 1.5243 0.0000-0.2971 ( 36508 PWs)   bands (ev):

   -44.1330 -44.1330 -22.2533 -22.2533 -22.2000 -22.2000 -22.0607 -22.0607
    -7.2747  -7.2747  -6.7680  -6.7680  -5.7659  -5.7659  -4.7629  -4.7629
    -4.5417  -4.5417   0.5183   0.5183   1.0145   1.0145   1.0611   1.0611
     1.6800   1.6800   2.0093   2.0093   2.7874   2.7874   3.1043   3.1043
     3.3613   3.3613   3.4471   3.4471   3.6816   3.6816   3.8266   3.8266
     4.2017   4.2017   6.3029   6.3029   6.6731   6.6731   6.7976   6.7976
     7.1878   7.1879

          k =-0.2541-0.4514 0.0000 ( 36444 PWs)   bands (ev):

   -44.1339 -44.1339 -22.2581 -22.2580 -22.1766 -22.1766 -22.0636 -22.0634
    -7.7325  -7.3983  -7.0418  -6.8389  -6.2846  -5.3706  -4.9689  -4.8060
    -4.7149  -3.9901   0.4844   0.9036   1.2106   1.2357   1.3332   1.6057
     1.8619   1.9479   1.9885   2.3827   2.4656   3.2210   3.3513   3.4222
     3.4984   3.6905   3.7663   3.8047   3.8524   4.1044   4.1166   4.1959
     4.3269   4.6136   6.0382   6.0488   6.3707   6.5820   6.7576   6.7994
     6.8331   7.0051

          k =-0.2541-0.4514 0.1485 ( 36461 PWs)   bands (ev):

   -44.1339 -44.1339 -22.2581 -22.2580 -22.1766 -22.1766 -22.0635 -22.0635
    -7.6997  -7.4780  -6.9825  -6.8547  -6.1960  -5.6159  -4.8620  -4.7381
    -4.6439  -4.0787   0.5324   0.9547   0.9808   1.2949   1.3474   1.4917
     1.8214   2.0777   2.3511   2.3909   2.4496   2.9269   3.3211   3.3540
     3.4580   3.5586   3.7277   3.8462   3.8822   3.9649   4.1920   4.2256
     4.7422   4.7884   5.8161   6.0143   6.1665   6.3540   6.6448   6.7411
     7.1285   7.2533

          k =-0.2541-0.4514-0.2971 ( 36490 PWs)   bands (ev):

   -44.1339 -44.1339 -22.2580 -22.2580 -22.1766 -22.1766 -22.0635 -22.0635
    -7.6068  -7.6068  -6.9027  -6.9027  -5.9512  -5.9512  -4.7945  -4.7945
    -4.3211  -4.3211   0.6933   0.6933   1.1791   1.1791   1.3286   1.3286
     2.1211   2.1211   2.3928   2.3928   2.6620   2.6620   3.2398   3.2398
     3.3637   3.3637   3.8276   3.8276   3.9818   3.9818   4.2061   4.2061
     5.0649   5.0649   5.6789   5.6789   6.1284   6.1284   6.6725   6.6725
     7.3547   7.3547

          k = 0.0000-0.3869 0.0000 ( 36477 PWs)   bands (ev):

   -44.1343 -44.1343 -22.2600 -22.2600 -22.1669 -22.1668 -22.0647 -22.0646
    -7.8533  -7.5121  -7.1081  -6.8848  -6.3503  -5.4185  -4.9559  -4.8452
    -4.7576  -3.8357   0.4153   0.7774   1.0756   1.2411   1.5079   1.6908
     2.2577   2.3365   2.5344   2.7854   2.9467   3.0715   3.1194   3.1590
     3.5505   3.5920   3.7358   3.9487   3.9917   4.0225   4.2522   4.6757
     4.7783   5.3790   5.7751   5.8861   5.9810   6.1141   6.3405   6.7063
     6.9913   7.1400

          k = 0.0000-0.3869 0.1485 ( 36452 PWs)   bands (ev):

   -44.1343 -44.1343 -22.2600 -22.2600 -22.1669 -22.1669 -22.0647 -22.0646
    -7.8198  -7.5930  -7.0431  -6.9016  -6.2639  -5.6721  -4.8837  -4.7791
    -4.6270  -3.9483   0.4731   0.9533   1.0224   1.1641   1.2295   1.9504
     2.1564   2.2848   2.4674   2.8351   2.9358   3.0210   3.1108   3.3308
     3.5553   3.6958   3.8036   3.9147   4.0451   4.0675   4.1720   4.6763
     4.7316   4.9634   5.9052   6.0473   6.0646   6.0712   6.5563   6.5822
     6.8173   7.0961

          k = 0.0000-0.3869-0.2971 ( 36454 PWs)   bands (ev):

   -44.1343 -44.1343 -22.2600 -22.2600 -22.1669 -22.1669 -22.0647 -22.0647
    -7.7247  -7.7247  -6.9542  -6.9542  -6.0179  -6.0179  -4.8293  -4.8293
    -4.2448  -4.2448   0.6890   0.6890   1.1665   1.1665   1.4011   1.4011
     2.3613   2.3613   2.6831   2.6831   2.8997   2.8997   3.1567   3.1567
     3.8106   3.8106   3.9799   3.9799   3.9987   3.9987   4.3642   4.3642
     4.6872   4.6872   5.9578   5.9578   6.3024   6.3024   6.4433   6.4433
     6.9276   6.9276

          k =-2.0325 0.0000 0.0000 ( 36452 PWs)   bands (ev):

   -44.1343 -44.1343 -22.2600 -22.2600 -22.1669 -22.1668 -22.0647 -22.0646
    -7.8496  -7.5115  -7.1048  -6.8869  -6.3594  -5.4199  -4.9622  -4.8434
    -4.7554  -3.8363   0.4209   0.7826   1.1960   1.2224   1.5176   1.7335
     2.2585   2.3389   2.5335   2.7938   2.9469   2.9918   3.0434   3.0918
     3.5954   3.6802   3.7241   3.8473   3.9463   3.9641   4.2522   4.6755
     4.7676   5.3710   5.7992   5.8939   6.0151   6.1285   6.3589   6.6576
     6.9914   7.1342

          k =-2.0325 0.0000 0.1485 ( 36456 PWs)   bands (ev):

   -44.1343 -44.1343 -22.2600 -22.2600 -22.1669 -22.1669 -22.0647 -22.0646
    -7.8162  -7.5911  -7.0423  -6.9040  -6.2709  -5.6737  -4.8901  -4.7778
    -4.6250  -3.9484   0.4768   0.9627   1.0421   1.2293   1.2767   1.9587
     2.1755   2.2856   2.4677   2.8413   2.9289   2.9368   2.9923   3.3475
     3.5342   3.7682   3.7930   3.9183   3.9541   4.0061   4.1688   4.6760
     4.7252   4.9632   5.9291   6.0631   6.0701   6.0726   6.5318   6.5843
     6.8183   7.0859

          k =-2.0325 0.0000-0.2971 ( 36460 PWs)   bands (ev):

   -44.1343 -44.1343 -22.2600 -22.2600 -22.1669 -22.1669 -22.0647 -22.0647
    -7.7217  -7.7217  -6.9560  -6.9560  -6.0214  -6.0214  -4.8316  -4.8316
    -4.2439  -4.2439   0.6917   0.6917   1.2359   1.2359   1.4091   1.4091
     2.3621   2.3621   2.6722   2.6722   2.9029   2.9029   3.0651   3.0651
     3.8577   3.8577   3.9286   3.9286   3.9720   3.9720   4.3561   4.3561
     4.6855   4.6855   5.9532   5.9532   6.3119   6.3119   6.4462   6.4462
     6.9142   6.9142

     the Fermi energy is     5.5530 ev

!    total energy              =   -4240.95406764 Ry

     total all-electron energy =   -150287.647762 Ry
     estimated scf accuracy    <          1.2E-11 Ry
     smearing contrib. (-TS)   =       0.00003018 Ry
     internal energy E=F+TS    =   -4240.95409782 Ry

     The total energy is F=E-TS. E is the sum of the following terms:
     one-electron contribution =    -166.96376840 Ry
     hartree contribution      =     116.95949321 Ry
     xc contribution           =    -201.50411754 Ry
     ewald contribution        =    -221.92507303 Ry
     one-center paw contrib.   =   -3767.52063206 Ry

     convergence has been achieved in  18 iterations

     Forces acting on atoms (cartesian axes, Ry/au):

     atom    1 type  1   force =     0.00000000    0.00033535    0.00000000
     atom    2 type  1   force =     0.00000000   -0.00033535    0.00000000
     atom    3 type  2   force =     0.00000000    0.00008652    0.00000000
     atom    4 type  2   force =     0.00000000   -0.00008652    0.00000000
     atom    5 type  2   force =     0.00000000   -0.00008225    0.00011317
     atom    6 type  2   force =     0.00000000    0.00008225   -0.00011317
     atom    7 type  2   force =     0.00000000   -0.00008225   -0.00011317
     atom    8 type  2   force =     0.00000000    0.00008225    0.00011317
     atom    9 type  2   force =     0.00000000   -0.00061236   -0.00067133
     atom   10 type  2   force =     0.00000000    0.00061236    0.00067133
     atom   11 type  2   force =     0.00000000   -0.00061236    0.00067133
     atom   12 type  2   force =     0.00000000    0.00061236   -0.00067133

     Total force =     0.001903     Total SCF correction =     0.000004


     Computing stress (Cartesian axis) and pressure

          total   stress  (Ry/bohr**3)                   (kbar)     P=        0.14
   0.00000143   0.00000000   0.00000000            0.21        0.00        0.00
   0.00000000   0.00000064   0.00000000            0.00        0.09        0.00
   0.00000000   0.00000000   0.00000078            0.00        0.00        0.11

 
     init_run     :     34.17s CPU     34.72s WALL (       1 calls)
     electrons    :   1697.15s CPU   1715.43s WALL (       1 calls)
     forces       :      6.45s CPU      6.67s WALL (       1 calls)
     stress       :     41.11s CPU     41.72s WALL (       1 calls)

     Called by init_run:
     wfcinit      :     30.14s CPU     30.43s WALL (       1 calls)
     potinit      :      1.31s CPU      1.36s WALL (       1 calls)
     hinit0       :      1.64s CPU      1.65s WALL (       1 calls)

     Called by electrons:
     c_bands      :   1349.58s CPU   1356.89s WALL (      19 calls)
     sum_band     :    311.71s CPU    318.11s WALL (      19 calls)
     v_of_rho     :      8.75s CPU      9.43s WALL (      19 calls)
     newd         :     18.65s CPU     22.63s WALL (      19 calls)
     PAW_pot      :      7.07s CPU      7.08s WALL (      19 calls)
     mix_rho      :      1.73s CPU      1.78s WALL (      19 calls)

     Called by c_bands:
     init_us_2    :     14.32s CPU     14.38s WALL (    2583 calls)
     cegterg      :   1269.87s CPU   1276.46s WALL (    1197 calls)

     Called by *egterg:
     cdiaghg      :     28.07s CPU     28.19s WALL (    8147 calls)
     h_psi        :   1093.21s CPU   1099.55s WALL (    8273 calls)
     s_psi        :     50.75s CPU     50.84s WALL (    8273 calls)
     g_psi        :      2.18s CPU      2.20s WALL (    7013 calls)

     Called by h_psi:
     h_psi:calbec :     43.39s CPU     43.50s WALL (    8273 calls)
     vloc_psi     :    995.15s CPU   1001.17s WALL (    8273 calls)
     add_vuspsi   :     50.83s CPU     50.93s WALL (    8273 calls)

     General routines
     calbec       :     57.53s CPU     57.68s WALL (    9785 calls)
     fft          :      7.99s CPU      8.21s WALL (     271 calls)
     ffts         :      0.21s CPU      0.21s WALL (      38 calls)
     fftw         :   1018.81s CPU   1024.75s WALL (  425148 calls)
     interpolate  :      0.69s CPU      0.69s WALL (      19 calls)
 
     Parallel routines
     fft_scatt_xy :    269.22s CPU    270.82s WALL (  425457 calls)
     fft_scatt_yz :    211.43s CPU    213.01s WALL (  425457 calls)
 
     PWSCF        :  29m39.11s CPU  29m59.10s WALL

 
   This run was terminated on:  15:15:54  19Nov2021            

=------------------------------------------------------------------------------=
   JOB DONE.
=------------------------------------------------------------------------------=
