
     Program PWSCF v.6.7MaX starts on 19Nov2021 at 14:46:19 

     This program is part of the open-source Quantum ESPRESSO suite
     for quantum simulation of materials; please cite
         "P. Giannozzi et al., J. Phys.:Condens. Matter 21 395502 (2009);
         "P. Giannozzi et al., J. Phys.:Condens. Matter 29 465901 (2017);
          URL http://www.quantum-espresso.org", 
     in publications or presentations arising from this work. More details at
     http://www.quantum-espresso.org/quote

     Parallel version (MPI), running on    10 processors

     MPI processes distributed on     1 nodes
     R & G space division:  proc/nbgrp/npool/nimage =      10
     Waiting for input...
     Reading input from standard input

     Current dimensions of program PWSCF are:
     Max number of different atomic species (ntypx) = 10
     Max number of k-points (npk) =  40000
     Max angular momentum in pseudopotentials (lmaxx) =  3
     file Zr.pbe-spn-kjpaw_psl.1.0.0.UPF: wavefunction(s)  4S 4P renormalized
     file Te.pbe-n-kjpaw_psl.1.0.0.UPF: wavefunction(s)  5S 5P renormalized

     Subspace diagonalization in iterative solution of the eigenvalue problem:
     a serial algorithm will be used

     Message from routine setup:
     using ibrav=0 with symmetry is DISCOURAGED, use correct ibrav instead
 
     Parallelization info
     --------------------
     sticks:   dense  smooth     PW     G-vecs:    dense   smooth      PW
     Min         734     293     87               115340    29174    4753
     Max         735     295     88               115345    29176    4760
     Sum        7345    2937    873              1153415   291749   47557
 


     bravais-lattice index     =            0
     lattice parameter (alat)  =      15.5510  a.u.
     unit-cell volume          =    3018.5011 (a.u.)^3
     number of atoms/cell      =           12
     number of atomic types    =            2
     number of electrons       =        84.00
     number of Kohn-Sham states=           50
     kinetic-energy cutoff     =      80.0000  Ry
     charge density cutoff     =     800.0000  Ry
     scf convergence threshold =      1.0E-10
     mixing beta               =       0.7000
     number of iterations used =            8  plain     mixing
     Exchange-correlation= SLA  PW   PBX  PBC
                           (   1   4   3   4   0   0   0)

     celldm(1)=  15.551040  celldm(2)=   0.000000  celldm(3)=   0.000000
     celldm(4)=   0.000000  celldm(5)=   0.000000  celldm(6)=   0.000000

     crystal axes: (cart. coord. in units of alat)
               a(1) = (   0.246007  -0.969268   0.000000 )  
               a(2) = (   0.246007   0.969268   0.000000 )  
               a(3) = (   0.000000   0.000000   1.683031 )  

     reciprocal axes: (cart. coord. in units 2 pi/alat)
               b(1) = (  2.032465 -0.515853  0.000000 )  
               b(2) = (  2.032465  0.515853  0.000000 )  
               b(3) = (  0.000000  0.000000  0.594166 )  


     PseudoPot. # 1 for Zr read from file:
     pseudo/Zr.pbe-spn-kjpaw_psl.1.0.0.UPF
     MD5 check sum: 02112c41713a0468aff2bb39ef194e36
     Pseudo is Projector augmented-wave + core cor, Zval = 12.0
     Generated using &quot;atomic&quot; code by A. Dal Corso  v.6.2.2
     Shape of augmentation charge: PSQ
     Using radial grid of 1225 points,  6 beta functions with: 
                l(1) =   0
                l(2) =   0
                l(3) =   1
                l(4) =   1
                l(5) =   2
                l(6) =   2
     Q(r) pseudized with 0 coefficients 


     PseudoPot. # 2 for Te read from file:
     pseudo/Te.pbe-n-kjpaw_psl.1.0.0.UPF
     MD5 check sum: 66247bff2bd9dbf220fbb0bf5ab56e9d
     Pseudo is Projector augmented-wave + core cor, Zval =  6.0
     Generated using &quot;atomic&quot; code by A. Dal Corso  v.6.3
     Shape of augmentation charge: PSQ
     Using radial grid of 1245 points,  6 beta functions with: 
                l(1) =   0
                l(2) =   0
                l(3) =   1
                l(4) =   1
                l(5) =   2
                l(6) =   2
     Q(r) pseudized with 0 coefficients 


     atomic species   valence    mass     pseudopotential
        Zr            12.00    91.22000     Zr( 1.00)
        Te             6.00   127.60000     Te( 1.00)

      8 Sym. Ops., with inversion, found ( 4 have fractional translation)



   Cartesian axes

     site n.     atom                  positions (alat units)
         1           Zr  tau(   1) = (   0.0000000   0.6023829   0.4207578  )
         2           Zr  tau(   2) = (   0.2460067   0.3668852   1.2622733  )
         3           Te  tau(   3) = (   0.2460067   0.3341836   0.4207578  )
         4           Te  tau(   4) = (   0.0000000   0.6350845   1.2622733  )
         5           Te  tau(   5) = (   0.2460067   0.8112936   0.2530653  )
         6           Te  tau(   6) = (   0.0000000   0.1579746   1.4299658  )
         7           Te  tau(   7) = (   0.2460067   0.8112936   0.5884503  )
         8           Te  tau(   8) = (   0.0000000   0.1579746   1.0945808  )
         9           Te  tau(   9) = (   0.0000000   0.4205407   0.7362718  )
        10           Te  tau(  10) = (   0.2460067   0.5487274   0.9467592  )
        11           Te  tau(  11) = (   0.0000000   0.4205407   0.1052437  )
        12           Te  tau(  12) = (   0.2460067   0.5487274   1.5777873  )

     number of k points=    63  Methfessel-Paxton smearing, width (Ry)=  0.0030
                       cart. coord. in units 2pi/alat
        k(    1) = (   0.0000000   0.0000000   0.0000000), wk =   0.0078125
        k(    2) = (   0.0000000   0.0000000   0.1485415), wk =   0.0156250
        k(    3) = (   0.0000000   0.0000000  -0.2970830), wk =   0.0078125
        k(    4) = (   0.2540581   0.0644816   0.0000000), wk =   0.0312500
        k(    5) = (   0.2540581   0.0644816   0.1485415), wk =   0.0625000
        k(    6) = (   0.2540581   0.0644816  -0.2970830), wk =   0.0312500
        k(    7) = (   0.5081162   0.1289633   0.0000000), wk =   0.0312500
        k(    8) = (   0.5081162   0.1289633   0.1485415), wk =   0.0625000
        k(    9) = (   0.5081162   0.1289633  -0.2970830), wk =   0.0312500
        k(   10) = (   0.7621743   0.1934449   0.0000000), wk =   0.0312500
        k(   11) = (   0.7621743   0.1934449   0.1485415), wk =   0.0625000
        k(   12) = (   0.7621743   0.1934449  -0.2970830), wk =   0.0312500
        k(   13) = (  -1.0162324  -0.2579266   0.0000000), wk =   0.0156250
        k(   14) = (  -1.0162324  -0.2579266   0.1485415), wk =   0.0312500
        k(   15) = (  -1.0162324  -0.2579266  -0.2970830), wk =   0.0156250
        k(   16) = (   0.5081162   0.0000000   0.0000000), wk =   0.0156250
        k(   17) = (   0.5081162   0.0000000   0.1485415), wk =   0.0312500
        k(   18) = (   0.5081162   0.0000000  -0.2970830), wk =   0.0156250
        k(   19) = (   0.7621743   0.0644816   0.0000000), wk =   0.0312500
        k(   20) = (   0.7621743   0.0644816   0.1485415), wk =   0.0625000
        k(   21) = (   0.7621743   0.0644816  -0.2970830), wk =   0.0312500
        k(   22) = (   1.0162324   0.1289633   0.0000000), wk =   0.0312500
        k(   23) = (   1.0162324   0.1289633   0.1485415), wk =   0.0625000
        k(   24) = (   1.0162324   0.1289633  -0.2970830), wk =   0.0312500
        k(   25) = (  -0.7621743  -0.3224082   0.0000000), wk =   0.0312500
        k(   26) = (  -0.7621743  -0.3224082   0.1485415), wk =   0.0625000
        k(   27) = (  -0.7621743  -0.3224082  -0.2970830), wk =   0.0312500
        k(   28) = (  -0.5081162  -0.2579266   0.0000000), wk =   0.0312500
        k(   29) = (  -0.5081162  -0.2579266   0.1485415), wk =   0.0625000
        k(   30) = (  -0.5081162  -0.2579266  -0.2970830), wk =   0.0312500
        k(   31) = (  -0.2540581  -0.1934449   0.0000000), wk =   0.0312500
        k(   32) = (  -0.2540581  -0.1934449   0.1485415), wk =   0.0625000
        k(   33) = (  -0.2540581  -0.1934449  -0.2970830), wk =   0.0312500
        k(   34) = (   0.0000000  -0.1289633   0.0000000), wk =   0.0156250
        k(   35) = (   0.0000000  -0.1289633   0.1485415), wk =   0.0312500
        k(   36) = (   0.0000000  -0.1289633  -0.2970830), wk =   0.0156250
        k(   37) = (   1.0162324   0.0000000   0.0000000), wk =   0.0156250
        k(   38) = (   1.0162324   0.0000000   0.1485415), wk =   0.0312500
        k(   39) = (   1.0162324   0.0000000  -0.2970830), wk =   0.0156250
        k(   40) = (   1.2702905   0.0644816   0.0000000), wk =   0.0312500
        k(   41) = (   1.2702905   0.0644816   0.1485415), wk =   0.0625000
        k(   42) = (   1.2702905   0.0644816  -0.2970830), wk =   0.0312500
        k(   43) = (  -0.5081162  -0.3868899   0.0000000), wk =   0.0312500
        k(   44) = (  -0.5081162  -0.3868899   0.1485415), wk =   0.0625000
        k(   45) = (  -0.5081162  -0.3868899  -0.2970830), wk =   0.0312500
        k(   46) = (  -0.2540581  -0.3224082   0.0000000), wk =   0.0312500
        k(   47) = (  -0.2540581  -0.3224082   0.1485415), wk =   0.0625000
        k(   48) = (  -0.2540581  -0.3224082  -0.2970830), wk =   0.0312500
        k(   49) = (   0.0000000  -0.2579266   0.0000000), wk =   0.0156250
        k(   50) = (   0.0000000  -0.2579266   0.1485415), wk =   0.0312500
        k(   51) = (   0.0000000  -0.2579266  -0.2970830), wk =   0.0156250
        k(   52) = (   1.5243485   0.0000000   0.0000000), wk =   0.0156250
        k(   53) = (   1.5243485   0.0000000   0.1485415), wk =   0.0312500
        k(   54) = (   1.5243485   0.0000000  -0.2970830), wk =   0.0156250
        k(   55) = (  -0.2540581  -0.4513715   0.0000000), wk =   0.0312500
        k(   56) = (  -0.2540581  -0.4513715   0.1485415), wk =   0.0625000
        k(   57) = (  -0.2540581  -0.4513715  -0.2970830), wk =   0.0312500
        k(   58) = (   0.0000000  -0.3868899   0.0000000), wk =   0.0156250
        k(   59) = (   0.0000000  -0.3868899   0.1485415), wk =   0.0312500
        k(   60) = (   0.0000000  -0.3868899  -0.2970830), wk =   0.0156250
        k(   61) = (  -2.0324647   0.0000000   0.0000000), wk =   0.0078125
        k(   62) = (  -2.0324647   0.0000000   0.1485415), wk =   0.0156250
        k(   63) = (  -2.0324647   0.0000000  -0.2970830), wk =   0.0078125

     Dense  grid:  1153415 G-vectors     FFT dimensions: ( 144, 144, 240)

     Smooth grid:   291749 G-vectors     FFT dimensions: (  90,  90, 150)

     Estimated max dynamical RAM per process >     657.19 MB

     Estimated total dynamical RAM >       6.42 GB

     Initial potential from superposition of free atoms

     starting charge   83.99353, renormalised to   84.00000
     Starting wfcs are   66 randomized atomic wfcs
     Checking if some PAW data can be deallocated... 

     total cpu time spent up to now is       42.8 secs

     Self-consistent Calculation

     iteration #  1     ecut=    80.00 Ry     beta= 0.70
     Davidson diagonalization with overlap
     ethr =  1.00E-02,  avg # of iterations =  2.2

     Threshold (ethr) on eigenvalues was too large:
     Diagonalizing with lowered threshold

     Davidson diagonalization with overlap
     ethr =  4.44E-04,  avg # of iterations =  4.0

     total cpu time spent up to now is      201.0 secs

     total energy              =   -4240.72069389 Ry
     estimated scf accuracy    <       0.44348118 Ry

     iteration #  2     ecut=    80.00 Ry     beta= 0.70
     Davidson diagonalization with overlap
     ethr =  5.28E-04,  avg # of iterations =  8.0

     total cpu time spent up to now is      313.2 secs

     total energy              =   -4240.62402762 Ry
     estimated scf accuracy    <       2.03525573 Ry

     iteration #  3     ecut=    80.00 Ry     beta= 0.70
     Davidson diagonalization with overlap
     ethr =  5.28E-04,  avg # of iterations =  5.4

     total cpu time spent up to now is      407.0 secs

     total energy              =   -4240.93454219 Ry
     estimated scf accuracy    <       0.00787172 Ry

     iteration #  4     ecut=    80.00 Ry     beta= 0.70
     Davidson diagonalization with overlap
     c_bands:  1 eigenvalues not converged
     c_bands:  1 eigenvalues not converged
     c_bands:  2 eigenvalues not converged
     c_bands:  1 eigenvalues not converged
     c_bands:  2 eigenvalues not converged
     c_bands:  2 eigenvalues not converged
     c_bands:  1 eigenvalues not converged
     c_bands:  1 eigenvalues not converged
     c_bands:  2 eigenvalues not converged
     c_bands:  1 eigenvalues not converged
     c_bands:  3 eigenvalues not converged
     c_bands:  1 eigenvalues not converged
     c_bands:  1 eigenvalues not converged
     c_bands:  1 eigenvalues not converged
     c_bands:  1 eigenvalues not converged
     c_bands:  1 eigenvalues not converged
     c_bands:  2 eigenvalues not converged
     c_bands:  3 eigenvalues not converged
     c_bands:  2 eigenvalues not converged
     c_bands:  4 eigenvalues not converged
     c_bands:  1 eigenvalues not converged
     c_bands:  2 eigenvalues not converged
     c_bands:  1 eigenvalues not converged
     c_bands:  1 eigenvalues not converged
     c_bands:  2 eigenvalues not converged
     c_bands:  2 eigenvalues not converged
     c_bands:  1 eigenvalues not converged
     ethr =  9.37E-06,  avg # of iterations = 17.2

     total cpu time spent up to now is      582.3 secs

     total energy              =   -4240.94407688 Ry
     estimated scf accuracy    <       0.03831063 Ry

     iteration #  5     ecut=    80.00 Ry     beta= 0.70
     Davidson diagonalization with overlap
     ethr =  9.37E-06,  avg # of iterations =  7.0

     total cpu time spent up to now is      674.3 secs

     total energy              =   -4240.94584806 Ry
     estimated scf accuracy    <       0.00645249 Ry

     iteration #  6     ecut=    80.00 Ry     beta= 0.70
     Davidson diagonalization with overlap
     ethr =  7.68E-06,  avg # of iterations =  3.9

     total cpu time spent up to now is      751.7 secs

     total energy              =   -4240.94649920 Ry
     estimated scf accuracy    <       0.00075741 Ry

     iteration #  7     ecut=    80.00 Ry     beta= 0.70
     Davidson diagonalization with overlap
     ethr =  9.02E-07,  avg # of iterations =  9.4

     total cpu time spent up to now is      866.9 secs

     total energy              =   -4240.94689116 Ry
     estimated scf accuracy    <       0.00095242 Ry

     iteration #  8     ecut=    80.00 Ry     beta= 0.70
     Davidson diagonalization with overlap
     ethr =  9.02E-07,  avg # of iterations =  2.3

     total cpu time spent up to now is      937.3 secs

     total energy              =   -4240.94692659 Ry
     estimated scf accuracy    <       0.00012550 Ry

     iteration #  9     ecut=    80.00 Ry     beta= 0.70
     Davidson diagonalization with overlap
     ethr =  1.49E-07,  avg # of iterations =  6.2

     total cpu time spent up to now is     1028.7 secs

     total energy              =   -4240.94697026 Ry
     estimated scf accuracy    <       0.00002193 Ry

     iteration # 10     ecut=    80.00 Ry     beta= 0.70
     Davidson diagonalization with overlap
     ethr =  2.61E-08,  avg # of iterations =  2.9

     total cpu time spent up to now is     1101.6 secs

     total energy              =   -4240.94697212 Ry
     estimated scf accuracy    <       0.00000308 Ry

     iteration # 11     ecut=    80.00 Ry     beta= 0.70
     Davidson diagonalization with overlap
     ethr =  3.67E-09,  avg # of iterations =  6.2

     total cpu time spent up to now is     1198.2 secs

     total energy              =   -4240.94697381 Ry
     estimated scf accuracy    <       0.00000106 Ry

     iteration # 12     ecut=    80.00 Ry     beta= 0.70
     Davidson diagonalization with overlap
     ethr =  1.26E-09,  avg # of iterations =  2.0

     total cpu time spent up to now is     1267.7 secs

     total energy              =   -4240.94697384 Ry
     estimated scf accuracy    <       0.00000018 Ry

     iteration # 13     ecut=    80.00 Ry     beta= 0.70
     Davidson diagonalization with overlap
     ethr =  2.09E-10,  avg # of iterations =  6.3

     total cpu time spent up to now is     1364.2 secs

     total energy              =   -4240.94697392 Ry
     estimated scf accuracy    <       0.00000007 Ry

     iteration # 14     ecut=    80.00 Ry     beta= 0.70
     Davidson diagonalization with overlap
     ethr =  8.45E-11,  avg # of iterations =  1.2

     total cpu time spent up to now is     1429.8 secs

     total energy              =   -4240.94697392 Ry
     estimated scf accuracy    <       0.00000003 Ry

     iteration # 15     ecut=    80.00 Ry     beta= 0.70
     Davidson diagonalization with overlap
     ethr =  3.18E-11,  avg # of iterations =  5.4

     total cpu time spent up to now is     1513.4 secs

     total energy              =   -4240.94697392 Ry
     estimated scf accuracy    <          1.1E-09 Ry

     iteration # 16     ecut=    80.00 Ry     beta= 0.70
     Davidson diagonalization with overlap
     ethr =  1.30E-12,  avg # of iterations =  6.8

     total cpu time spent up to now is     1610.1 secs

     total energy              =   -4240.94697392 Ry
     estimated scf accuracy    <          2.4E-09 Ry

     iteration # 17     ecut=    80.00 Ry     beta= 0.70
     Davidson diagonalization with overlap
     ethr =  1.30E-12,  avg # of iterations =  2.2

     total cpu time spent up to now is     1679.9 secs

     total energy              =   -4240.94697392 Ry
     estimated scf accuracy    <          8.0E-10 Ry

     iteration # 18     ecut=    80.00 Ry     beta= 0.70
     Davidson diagonalization with overlap
     ethr =  9.52E-13,  avg # of iterations =  3.7

     total cpu time spent up to now is     1753.6 secs

     total energy              =   -4240.94697392 Ry
     estimated scf accuracy    <          1.0E-10 Ry

     iteration # 19     ecut=    80.00 Ry     beta= 0.70
     Davidson diagonalization with overlap
     ethr =  1.21E-13,  avg # of iterations =  8.0

     total cpu time spent up to now is     1847.5 secs

     total energy              =   -4240.94697392 Ry
     estimated scf accuracy    <          1.2E-10 Ry

     iteration # 20     ecut=    80.00 Ry     beta= 0.70
     Davidson diagonalization with overlap
     ethr =  1.21E-13,  avg # of iterations =  1.0

     total cpu time spent up to now is     1891.4 secs

     End of self-consistent calculation

          k = 0.0000 0.0000 0.0000 ( 36359 PWs)   bands (ev):

   -44.1415 -44.1415 -22.2595 -22.2595 -22.1691 -22.1691 -22.0757 -22.0756
    -8.0893  -7.8437  -7.1292  -6.9293  -6.1633  -5.4123  -4.8057  -4.7860
    -4.7561  -3.7947   0.2636   0.7717   0.8121   1.1479   1.3451   1.5364
     2.0076   2.1682   2.2791   2.7881   2.9193   2.9953   3.3078   3.3387
     3.7977   3.8964   4.0538   4.0890   4.3224   4.3404   4.4249   4.7159
     4.7372   5.3828   5.6354   5.8809   5.8933   5.9831   5.9832   6.7721
     7.0545   7.2806

          k = 0.0000 0.0000 0.1485 ( 36415 PWs)   bands (ev):

   -44.1415 -44.1415 -22.2595 -22.2595 -22.1691 -22.1691 -22.0757 -22.0756
    -8.0615  -7.8917  -7.0843  -6.9479  -6.0964  -5.6118  -4.7981  -4.7633
    -4.5591  -3.9060   0.3389   0.8406   0.9147   0.9565   1.1044   1.8711
     2.0216   2.0267   2.1388   2.8142   2.9052   3.0648   3.3969   3.4414
     3.7659   3.9487   4.0258   4.0995   4.2505   4.3716   4.4357   4.7113
     4.7173   4.9096   5.8417   5.8880   5.8944   6.1401   6.3586   6.6124
     6.8680   7.1400

          k = 0.0000 0.0000-0.2971 ( 36410 PWs)   bands (ev):

   -44.1415 -44.1415 -22.2595 -22.2595 -22.1691 -22.1691 -22.0756 -22.0756
    -7.9858  -7.9858  -7.0039  -7.0039  -5.8996  -5.8996  -4.7808  -4.7808
    -4.1951  -4.1951   0.5666   0.5666   0.9616   0.9616   1.3438   1.3438
     2.0779   2.0779   2.5832   2.5832   2.8654   2.8654   3.5754   3.5754
     3.9230   3.9230   4.0888   4.0888   4.3196   4.3196   4.4205   4.4205
     4.7054   4.7054   5.8865   5.8865   6.2241   6.2241   6.4944   6.4944
     6.8402   6.8402

          k = 0.2541 0.0645 0.0000 ( 36396 PWs)   bands (ev):

   -44.1412 -44.1411 -22.2575 -22.2575 -22.1787 -22.1787 -22.0746 -22.0745
    -7.9663  -7.7238  -7.0629  -6.8805  -6.1033  -5.3646  -4.8265  -4.7605
    -4.7108  -3.9657   0.3463   0.8882   0.9376   1.0441   1.2582   1.4827
     1.5920   1.6989   1.7960   2.5856   2.6139   3.2346   3.2514   3.7096
     3.7749   3.7779   3.8659   3.8767   4.0608   4.2568   4.3289   4.3861
     4.4710   4.5776   5.8960   5.9795   6.1780   6.5241   6.5841   6.6563
     7.0346   7.2146

          k = 0.2541 0.0645 0.1485 ( 36423 PWs)   bands (ev):

   -44.1412 -44.1411 -22.2575 -22.2575 -22.1787 -22.1787 -22.0746 -22.0745
    -7.9389  -7.7713  -7.0215  -6.8974  -6.0358  -5.5596  -4.7649  -4.7200
    -4.6050  -4.0536   0.4104   0.8627   0.9213   0.9792   1.2085   1.2673
     1.7263   1.7784   2.1247   2.5830   2.5961   2.9535   3.3961   3.4059
     3.5282   3.8273   3.9568   4.0068   4.0531   4.1967   4.3833   4.4040
     4.6906   4.7562   5.8735   5.9909   6.1359   6.2423   6.3409   6.7850
     7.2119   7.2617

          k = 0.2541 0.0645-0.2971 ( 36436 PWs)   bands (ev):

   -44.1412 -44.1412 -22.2575 -22.2575 -22.1787 -22.1787 -22.0745 -22.0745
    -7.8642  -7.8642  -6.9482  -6.9482  -5.8404  -5.8404  -4.7417  -4.7417
    -4.2911  -4.2911   0.5970   0.5970   1.0165   1.0165   1.1151   1.1151
     1.8687   1.8687   2.4866   2.4866   2.6550   2.6550   3.2497   3.2497
     3.6646   3.6646   3.9883   3.9883   4.1516   4.1516   4.4056   4.4056
     4.9529   4.9529   5.7942   5.7942   6.1474   6.1474   6.4593   6.4593
     7.3739   7.3739

          k = 0.5081 0.1290 0.0000 ( 36499 PWs)   bands (ev):

   -44.1403 -44.1403 -22.2528 -22.2528 -22.2018 -22.2018 -22.0719 -22.0718
    -7.6084  -7.3724  -6.9051  -6.7577  -5.9276  -5.2491  -5.0150  -4.6468
    -4.5996  -4.4695   0.1577   0.5216   0.6746   1.1073   1.1698   1.3028
     1.6327   1.7083   1.8424   2.0879   2.1500   2.3514   2.5227   3.4155
     3.4999   3.5294   3.5759   3.6291   3.7698   3.8545   3.9746   4.2077
     4.3356   4.9242   5.7536   6.1295   6.2288   6.6045   6.6330   7.0187
     7.4467   7.5576

          k = 0.5081 0.1290 0.1485 ( 36476 PWs)   bands (ev):

   -44.1403 -44.1403 -22.2528 -22.2528 -22.2018 -22.2018 -22.0719 -22.0718
    -7.5822  -7.4200  -6.8704  -6.7712  -5.8624  -5.4350  -4.8665  -4.6327
    -4.6184  -4.4902   0.2032   0.5107   0.7665   0.9132   1.1995   1.2881
     1.4037   1.5736   2.0075   2.0930   2.3406   2.4667   2.8419   3.3919
     3.4443   3.5045   3.5142   3.6531   3.7462   3.7737   3.8628   4.2476
     4.2985   4.4752   6.2107   6.2491   6.4022   6.6046   6.6840   6.8869
     7.2950   7.5236

          k = 0.5081 0.1290-0.2971 ( 36466 PWs)   bands (ev):

   -44.1403 -44.1403 -22.2528 -22.2528 -22.2018 -22.2018 -22.0719 -22.0719
    -7.5105  -7.5105  -6.8116  -6.8116  -5.6824  -5.6824  -4.7166  -4.7166
    -4.5523  -4.5523   0.3503   0.3503   0.9846   0.9846   1.0116   1.0116
     1.4496   1.4496   2.0553   2.0553   2.6722   2.6722   3.1807   3.1807
     3.3949   3.3949   3.5724   3.5724   3.7421   3.7421   3.8809   3.8809
     4.3280   4.3280   6.4487   6.4487   6.5685   6.5685   6.8729   6.8729
     7.2056   7.2056

          k = 0.7622 0.1934 0.0000 ( 36521 PWs)   bands (ev):

   -44.1394 -44.1394 -22.2481 -22.2481 -22.2248 -22.2248 -22.0692 -22.0692
    -7.0747  -6.8202  -6.7576  -6.5961  -5.7311  -5.4721  -5.1638  -5.1396
    -4.5206  -4.4832  -0.1347   0.0204   0.3185   0.9477   0.9530   1.2896
     1.4865   1.6002   2.0024   2.1788   2.2310   2.2607   2.4400   2.8049
     2.9580   3.2561   3.3542   3.4968   3.5012   3.6681   3.7366   3.7659
     3.8371   4.5764   6.0728   6.4181   6.4960   6.9096   6.9335   6.9978
     7.3671   7.6365

          k = 0.7622 0.1934 0.1485 ( 36503 PWs)   bands (ev):

   -44.1394 -44.1394 -22.2481 -22.2481 -22.2248 -22.2248 -22.0692 -22.0692
    -7.0513  -6.8941  -6.6995  -6.6077  -5.6903  -5.5056  -5.1659  -5.1466
    -4.5129  -4.4869  -0.1081   0.1561   0.2142   0.8232   0.9628   1.2426
     1.4969   1.6066   1.9883   2.0407   2.1282   2.5935   2.6961   2.8876
     2.9233   3.0489   3.2718   3.3713   3.5157   3.6116   3.7150   3.9310
     3.9813   4.4736   5.8930   6.4109   6.7162   6.8487   7.0199   7.0282
     7.1513   7.6440

          k = 0.7622 0.1934-0.2971 ( 36522 PWs)   bands (ev):

   -44.1394 -44.1394 -22.2481 -22.2481 -22.2248 -22.2248 -22.0692 -22.0692
    -6.9861  -6.9861  -6.6424  -6.6424  -5.5947  -5.5947  -5.1602  -5.1602
    -4.4979  -4.4979   0.0193   0.0193   0.4769   0.4769   1.0813   1.0813
     1.5591   1.5591   2.0052   2.0052   2.4162   2.4162   2.8375   2.8375
     2.9719   2.9719   3.2843   3.2843   3.5974   3.5974   3.9429   3.9429
     4.0634   4.0634   6.2968   6.2968   6.5026   6.5026   7.0422   7.0422
     7.5219   7.5219

          k =-1.0162-0.2579 0.0000 ( 36506 PWs)   bands (ev):

   -44.1390 -44.1390 -22.2460 -22.2460 -22.2343 -22.2343 -22.0681 -22.0681
    -6.7433  -6.7227  -6.1713  -6.1600  -6.1412  -6.1360  -5.2312  -5.2306
    -4.4629  -4.4345  -0.1010  -0.0809   0.2084   0.2301   1.0110   1.0193
     1.4670   1.6627   2.2208   2.3844   2.4033   2.4272   2.8070   2.8202
     2.8249   2.8460   3.1879   3.2466   3.3119   3.3717   3.4466   3.6441
     3.9035   4.1752   6.6414   6.7115   6.7139   6.7312   7.0922   7.1880
     7.1906   7.2486

          k =-1.0162-0.2579 0.1485 ( 36506 PWs)   bands (ev):

   -44.1390 -44.1390 -22.2460 -22.2460 -22.2343 -22.2343 -22.0681 -22.0681
    -6.7389  -6.7242  -6.1997  -6.1922  -6.1118  -6.1074  -5.2292  -5.2289
    -4.4613  -4.4412  -0.1961  -0.1900   0.4083   0.4162   1.0063   1.0180
     1.4607   1.5925   2.0489   2.1697   2.3542   2.3955   2.6637   2.6753
     2.9305   3.0443   3.0877   3.2010   3.5437   3.5615   3.5938   3.7256
     4.0606   4.2073   6.1864   6.2068   6.5511   6.6280   7.1952   7.2063
     7.4052   7.4720

          k =-1.0162-0.2579-0.2971 ( 36528 PWs)   bands (ev):

   -44.1390 -44.1390 -22.2460 -22.2460 -22.2343 -22.2343 -22.0681 -22.0681
    -6.7301  -6.7301  -6.2130  -6.2130  -6.0938  -6.0938  -5.2272  -5.2272
    -4.4538  -4.4538  -0.2552  -0.2552   0.6069   0.6069   0.9706   0.9706
     1.5096   1.5096   1.8862   1.8862   2.3571   2.3571   2.7621   2.7621
     2.8461   2.8461   3.1834   3.1834   3.6350   3.6350   3.7949   3.7949
     4.3159   4.3159   5.8052   5.8052   6.4966   6.4966   7.2165   7.2165
     7.5345   7.5345

          k = 0.5081 0.0000 0.0000 ( 36503 PWs)   bands (ev):

   -44.1403 -44.1403 -22.2528 -22.2528 -22.2018 -22.2018 -22.0719 -22.0718
    -7.6110  -7.3729  -6.9055  -6.7557  -5.9244  -5.2487  -5.0125  -4.6405
    -4.6071  -4.4690   0.1625   0.5170   0.6726   1.1321   1.1657   1.2468
     1.6271   1.7007   1.8290   2.0947   2.1478   2.3362   2.5245   3.4080
     3.5365   3.5453   3.5893   3.5998   3.7804   3.9080   3.9566   4.2452
     4.3381   4.9168   5.7597   6.1055   6.2633   6.5674   6.5810   7.0556
     7.4546   7.5788

          k = 0.5081 0.0000 0.1485 ( 36453 PWs)   bands (ev):

   -44.1403 -44.1403 -22.2528 -22.2528 -22.2018 -22.2018 -22.0719 -22.0718
    -7.5846  -7.4211  -6.8699  -6.7692  -5.8599  -5.4344  -4.8628  -4.6336
    -4.6178  -4.4917   0.2064   0.5042   0.7680   0.9189   1.2215   1.2558
     1.3709   1.5512   2.0062   2.1058   2.3391   2.4439   2.8410   3.4079
     3.4679   3.4806   3.5254   3.6653   3.7343   3.8384   3.8419   4.2962
     4.3029   4.4615   6.1992   6.2599   6.4213   6.5592   6.6463   6.9202
     7.3110   7.5370

          k = 0.5081 0.0000-0.2971 ( 36452 PWs)   bands (ev):

   -44.1403 -44.1403 -22.2528 -22.2528 -22.2018 -22.2018 -22.0719 -22.0719
    -7.5125  -7.5125  -6.8100  -6.8100  -5.6811  -5.6811  -4.7130  -4.7130
    -4.5550  -4.5550   0.3494   0.3494   0.9860   0.9860   1.0154   1.0154
     1.4144   1.4144   2.0590   2.0590   2.6623   2.6623   3.1799   3.1799
     3.4026   3.4026   3.5786   3.5786   3.7723   3.7723   3.8730   3.8730
     4.3465   4.3465   6.4638   6.4638   6.5325   6.5325   6.8912   6.8912
     7.2064   7.2064

          k = 0.7622 0.0645 0.0000 ( 36505 PWs)   bands (ev):

   -44.1394 -44.1394 -22.2481 -22.2481 -22.2248 -22.2248 -22.0692 -22.0692
    -7.0811  -6.8212  -6.7551  -6.5910  -5.7314  -5.4697  -5.1642  -5.1387
    -4.5100  -4.4947  -0.1257   0.0176   0.3291   0.9427   0.9787   1.3031
     1.4534   1.5630   1.9663   2.2029   2.2388   2.2638   2.3765   2.7806
     2.9478   3.3019   3.3676   3.5058   3.5578   3.6605   3.6982   3.7757
     3.8336   4.6024   6.0701   6.3927   6.5138   6.9062   6.9575   6.9661
     7.3776   7.6672

          k = 0.7622 0.0645 0.1485 ( 36509 PWs)   bands (ev):

   -44.1394 -44.1394 -22.2481 -22.2481 -22.2248 -22.2248 -22.0692 -22.0692
    -7.0574  -6.8970  -6.6953  -6.6024  -5.6907  -5.5044  -5.1656  -5.1456
    -4.5054  -4.4949  -0.0996   0.1540   0.2216   0.8128   0.9904   1.2564
     1.4670   1.6040   1.9774   2.0067   2.0761   2.5980   2.6943   2.8794
     2.9057   3.0538   3.3158   3.3757   3.5608   3.6015   3.6840   3.9666
     3.9803   4.4677   5.9174   6.3880   6.7321   6.8500   6.9910   7.0708
     7.1236   7.6664

          k = 0.7622 0.0645-0.2971 ( 36472 PWs)   bands (ev):

   -44.1394 -44.1394 -22.2481 -22.2481 -22.2248 -22.2248 -22.0692 -22.0692
    -6.9909  -6.9909  -6.6370  -6.6370  -5.5949  -5.5949  -5.1593  -5.1593
    -4.4981  -4.4981   0.0277   0.0277   0.4698   0.4698   1.1016   1.1016
     1.5536   1.5536   1.9522   1.9522   2.4069   2.4069   2.8416   2.8416
     2.9525   2.9525   3.3371   3.3371   3.5944   3.5944   3.9400   3.9400
     4.0645   4.0645   6.3237   6.3237   6.5021   6.5021   7.0117   7.0117
     7.5493   7.5493

          k = 1.0162 0.1290 0.0000 ( 36514 PWs)   bands (ev):

   -44.1390 -44.1390 -22.2460 -22.2460 -22.2343 -22.2343 -22.0681 -22.0681
    -6.7433  -6.7227  -6.1712  -6.1601  -6.1413  -6.1360  -5.2312  -5.2306
    -4.4629  -4.4345  -0.1067  -0.0751   0.2054   0.2332   1.0033   1.0279
     1.4737   1.6527   2.2175   2.3894   2.4052   2.4217   2.7783   2.8211
     2.8408   2.8733   3.2079   3.2188   3.2944   3.3580   3.4942   3.6260
     3.8872   4.1911   6.6357   6.6965   6.7224   6.7464   7.1157   7.1884
     7.1927   7.2295

          k = 1.0162 0.1290 0.1485 ( 36524 PWs)   bands (ev):

   -44.1390 -44.1390 -22.2460 -22.2460 -22.2343 -22.2343 -22.0681 -22.0681
    -6.7389  -6.7242  -6.1996  -6.1923  -6.1117  -6.1075  -5.2293  -5.2289
    -4.4613  -4.4412  -0.1985  -0.1879   0.4096   0.4154   1.0057   1.0187
     1.4668   1.5862   2.0591   2.1525   2.3567   2.3935   2.6347   2.7107
     2.9324   3.0562   3.0856   3.1913   3.5182   3.5637   3.6260   3.7181
     4.0389   4.2266   6.1810   6.2169   6.5476   6.6306   7.1984   7.2060
     7.4155   7.4631

          k = 1.0162 0.1290-0.2971 ( 36516 PWs)   bands (ev):

   -44.1390 -44.1390 -22.2460 -22.2460 -22.2343 -22.2343 -22.0681 -22.0681
    -6.7301  -6.7301  -6.2130  -6.2130  -6.0938  -6.0938  -5.2272  -5.2272
    -4.4538  -4.4538  -0.2553  -0.2553   0.6073   0.6073   0.9704   0.9704
     1.5108   1.5108   1.8870   1.8870   2.3500   2.3500   2.7433   2.7433
     2.8806   2.8806   3.1715   3.1715   3.6370   3.6370   3.7936   3.7936
     4.3164   4.3164   5.8079   5.8079   6.4958   6.4958   7.2175   7.2175
     7.5356   7.5356

          k =-0.7622-0.3224 0.0000 ( 36511 PWs)   bands (ev):

   -44.1394 -44.1394 -22.2481 -22.2481 -22.2248 -22.2248 -22.0692 -22.0692
    -7.0651  -6.8187  -6.7620  -6.6029  -5.7307  -5.4755  -5.1631  -5.1410
    -4.5288  -4.4739  -0.1473   0.0246   0.3034   0.9138   0.9676   1.2732
     1.5036   1.6662   2.0767   2.1546   2.2227   2.2831   2.4602   2.8415
     2.9686   3.2155   3.3407   3.4803   3.4954   3.6269   3.6787   3.7325
     3.9485   4.5314   6.0766   6.4336   6.5043   6.8279   6.9750   7.0646
     7.3407   7.5936

          k =-0.7622-0.3224 0.1485 ( 36492 PWs)   bands (ev):

   -44.1394 -44.1394 -22.2481 -22.2481 -22.2248 -22.2248 -22.0692 -22.0692
    -7.0423  -6.8901  -6.7059  -6.6151  -5.6896  -5.5074  -5.1663  -5.1480
    -4.5186  -4.4803  -0.1198   0.1603   0.2024   0.8371   0.9321   1.2239
     1.5266   1.6172   1.9816   2.1334   2.1886   2.5902   2.6763   2.9086
     2.9329   3.0672   3.2272   3.3482   3.4747   3.5894   3.7486   3.8790
     3.9998   4.4802   5.8607   6.4475   6.6855   6.8447   6.9876   7.0755
     7.1774   7.5956

          k =-0.7622-0.3224-0.2971 ( 36508 PWs)   bands (ev):

   -44.1394 -44.1394 -22.2481 -22.2481 -22.2248 -22.2248 -22.0692 -22.0692
    -6.9789  -6.9789  -6.6503  -6.6503  -5.5944  -5.5944  -5.1617  -5.1617
    -4.4976  -4.4976   0.0079   0.0079   0.4864   0.4864   1.0570   1.0570
     1.5673   1.5673   2.0687   2.0687   2.4437   2.4437   2.8327   2.8327
     3.0001   3.0001   3.2102   3.2102   3.5947   3.5947   3.9171   3.9171
     4.0898   4.0898   6.2628   6.2628   6.5017   6.5017   7.0912   7.0912
     7.4724   7.4724

          k =-0.5081-0.2579 0.0000 ( 36480 PWs)   bands (ev):

   -44.1403 -44.1403 -22.2528 -22.2528 -22.2018 -22.2018 -22.0719 -22.0718
    -7.6021  -7.3712  -6.9044  -6.7621  -5.9353  -5.2500  -5.0212  -4.6561
    -4.5873  -4.4706   0.1463   0.5326   0.6764   1.0822   1.1798   1.4142
     1.6422   1.7361   1.8760   2.0761   2.1473   2.3826   2.5162   3.3951
     3.4359   3.5273   3.5559   3.6680   3.7150   3.7631   4.0116   4.1229
     4.3260   4.9400   5.7413   6.1364   6.1990   6.7001   6.7568   6.9318
     7.4185   7.5099

          k =-0.5081-0.2579 0.1485 ( 36485 PWs)   bands (ev):

   -44.1403 -44.1403 -22.2528 -22.2528 -22.2018 -22.2018 -22.0719 -22.0718
    -7.5763  -7.4174  -6.8718  -6.7757  -5.8685  -5.4364  -4.8754  -4.6302
    -4.6201  -4.4866   0.1956   0.5259   0.7623   0.8995   1.1868   1.3201
     1.4963   1.6367   2.0000   2.0704   2.3481   2.5097   2.8430   3.3181
     3.4483   3.5013   3.5136   3.6343   3.6451   3.7670   3.8951   4.1626
     4.2642   4.4996   6.2105   6.2459   6.3618   6.7026   6.7873   6.8155
     7.2488   7.4956

          k =-0.5081-0.2579-0.2971 ( 36478 PWs)   bands (ev):

   -44.1403 -44.1403 -22.2528 -22.2528 -22.2018 -22.2018 -22.0719 -22.0719
    -7.5058  -7.5058  -6.8155  -6.8155  -5.6856  -5.6856  -4.7250  -4.7250
    -4.5463  -4.5463   0.3524   0.3524   0.9792   0.9792   1.0064   1.0064
     1.5413   1.5413   2.0412   2.0412   2.7016   2.7016   3.1655   3.1655
     3.3771   3.3771   3.5399   3.5399   3.6986   3.6986   3.8974   3.8974
     4.2852   4.2852   6.4147   6.4147   6.6461   6.6461   6.8324   6.8324
     7.2110   7.2110

          k =-0.2541-0.1934 0.0000 ( 36410 PWs)   bands (ev):

   -44.1412 -44.1411 -22.2575 -22.2575 -22.1787 -22.1787 -22.0746 -22.0745
    -7.9620  -7.7230  -7.0586  -6.8831  -6.1151  -5.3678  -4.8392  -4.7645
    -4.6974  -3.9666   0.3700   0.8929   1.0044   1.0397   1.2865   1.5197
     1.6177   1.7008   1.8198   2.5545   2.6044   3.2212   3.3101   3.6814
     3.7250   3.7336   3.8446   3.8735   3.9120   4.1940   4.3195   4.3415
     4.3605   4.6210   5.9533   6.0181   6.2536   6.5361   6.5695   6.7247
     7.0080   7.1353

          k =-0.2541-0.1934 0.1485 ( 36427 PWs)   bands (ev):

   -44.1412 -44.1411 -22.2575 -22.2575 -22.1787 -22.1787 -22.0746 -22.0745
    -7.9348  -7.7695  -7.0193  -6.8997  -6.0459  -5.5634  -4.7816  -4.7125
    -4.6002  -4.0537   0.4336   0.8645   0.9318   1.0524   1.2393   1.2876
     1.7339   1.7846   2.1570   2.5538   2.5899   2.9457   3.4119   3.4503
     3.5385   3.7383   3.8349   3.9058   4.0066   4.1678   4.3412   4.3536
     4.6645   4.7817   5.8721   6.0139   6.1381   6.3153   6.4081   6.7847
     7.1724   7.2523

          k =-0.2541-0.1934-0.2971 ( 36422 PWs)   bands (ev):

   -44.1412 -44.1412 -22.2575 -22.2575 -22.1787 -22.1787 -22.0745 -22.0745
    -7.8610  -7.8610  -6.9491  -6.9491  -5.8468  -5.8468  -4.7455  -4.7455
    -4.2895  -4.2895   0.6163   0.6163   1.0418   1.0418   1.1520   1.1520
     1.8746   1.8746   2.4848   2.4848   2.6562   2.6562   3.2596   3.2596
     3.6711   3.6711   3.8382   3.8382   4.1273   4.1273   4.3527   4.3527
     4.9678   4.9678   5.7645   5.7645   6.1839   6.1839   6.5088   6.5088
     7.3622   7.3622

          k = 0.0000-0.1290 0.0000 ( 36417 PWs)   bands (ev):

   -44.1415 -44.1415 -22.2595 -22.2595 -22.1691 -22.1691 -22.0757 -22.0756
    -8.0870  -7.8433  -7.1261  -6.9306  -6.1709  -5.4147  -4.8184  -4.7883
    -4.7431  -3.7951   0.2800   0.7752   0.8528   1.1587   1.3565   1.5673
     2.0075   2.1677   2.2773   2.7951   2.9221   2.9979   3.3043   3.3774
     3.7607   3.8851   3.9243   4.0127   4.2865   4.3226   4.3779   4.7148
     4.7247   5.3571   5.6554   5.9047   5.9440   5.9911   6.0308   6.7842
     7.0545   7.2294

          k = 0.0000-0.1290 0.1485 ( 36419 PWs)   bands (ev):

   -44.1415 -44.1415 -22.2595 -22.2595 -22.1691 -22.1691 -22.0757 -22.0756
    -8.0593  -7.8908  -7.0824  -6.9489  -6.1030  -5.6145  -4.8074  -4.7581
    -4.5575  -3.9061   0.3555   0.8839   0.9225   0.9607   1.1251   1.8755
     2.0267   2.0394   2.1384   2.8205   2.9085   3.0699   3.3764   3.4789
     3.7618   3.9038   3.9381   4.0000   4.2470   4.3176   4.3907   4.7083
     4.7113   4.9029   5.8562   5.9149   5.9428   6.1461   6.3720   6.6198
     6.8691   7.1099

          k = 0.0000-0.1290-0.2971 ( 36464 PWs)   bands (ev):

   -44.1415 -44.1415 -22.2595 -22.2595 -22.1691 -22.1691 -22.0756 -22.0756
    -7.9841  -7.9841  -7.0039  -7.0039  -5.9040  -5.9040  -4.7827  -4.7827
    -4.1946  -4.1946   0.5853   0.5853   0.9867   0.9867   1.3493   1.3493
     2.0778   2.0778   2.5953   2.5953   2.8701   2.8701   3.5769   3.5769
     3.8590   3.8590   4.0806   4.0806   4.2376   4.2376   4.4117   4.4117
     4.7026   4.7026   5.9149   5.9149   6.2372   6.2372   6.4976   6.4976
     6.8323   6.8323

          k = 1.0162 0.0000 0.0000 ( 36499 PWs)   bands (ev):

   -44.1390 -44.1390 -22.2460 -22.2460 -22.2343 -22.2343 -22.0681 -22.0681
    -6.7433  -6.7227  -6.1710  -6.1603  -6.1413  -6.1360  -5.2312  -5.2306
    -4.4629  -4.4345  -0.1109  -0.0709   0.2029   0.2358   0.9992   1.0328
     1.4813   1.6419   2.2143   2.3975   2.4073   2.4132   2.7684   2.8261
     2.8315   2.9031   3.2012   3.2340   3.2729   3.3380   3.5626   3.5808
     3.8727   4.2054   6.6309   6.6877   6.7301   6.7553   7.1565   7.1889
     7.1933   7.1945

          k = 1.0162 0.0000 0.1485 ( 36485 PWs)   bands (ev):

   -44.1390 -44.1390 -22.2460 -22.2460 -22.2343 -22.2343 -22.0681 -22.0681
    -6.7389  -6.7242  -6.1995  -6.1923  -6.1117  -6.1075  -5.2293  -5.2289
    -4.4613  -4.4412  -0.2002  -0.1866   0.4116   0.4140   1.0053   1.0193
     1.4737   1.5792   2.0742   2.1308   2.3616   2.3887   2.6240   2.7263
     2.9386   3.0616   3.0899   3.1791   3.5032   3.5642   3.6544   3.7059
     4.0208   4.2424   6.1781   6.2245   6.5444   6.6329   7.2033   7.2040
     7.4399   7.4401

          k = 1.0162 0.0000-0.2971 ( 36514 PWs)   bands (ev):

   -44.1390 -44.1390 -22.2460 -22.2460 -22.2343 -22.2343 -22.0681 -22.0681
    -6.7301  -6.7301  -6.2130  -6.2130  -6.0938  -6.0938  -5.2272  -5.2272
    -4.4538  -4.4538  -0.2555  -0.2555   0.6076   0.6076   0.9702   0.9702
     1.5120   1.5120   1.8877   1.8877   2.3431   2.3431   2.7313   2.7313
     2.9099   2.9099   3.1581   3.1581   3.6389   3.6389   3.7924   3.7924
     4.3170   4.3170   5.8106   5.8106   6.4951   6.4951   7.2185   7.2185
     7.5368   7.5368

          k = 1.2703 0.0645 0.0000 ( 36468 PWs)   bands (ev):

   -44.1394 -44.1394 -22.2481 -22.2481 -22.2248 -22.2248 -22.0692 -22.0692
    -7.0580  -6.8177  -6.7658  -6.6075  -5.7305  -5.4779  -5.1626  -5.1422
    -4.5331  -4.4688  -0.1561   0.0277   0.2926   0.8945   0.9778   1.2626
     1.5061   1.7150   2.1398   2.1599   2.2272   2.2978   2.4240   2.8704
     2.9715   3.1876   3.3738   3.4729   3.5048   3.6004   3.6011   3.6919
     4.0413   4.4885   6.0793   6.4319   6.5331   6.7684   7.0067   7.1278
     7.3055   7.5806

          k = 1.2703 0.0645 0.1485 ( 36490 PWs)   bands (ev):

   -44.1394 -44.1394 -22.2481 -22.2481 -22.2248 -22.2248 -22.0692 -22.0692
    -7.0356  -6.8873  -6.7110  -6.6203  -5.6892  -5.5086  -5.1665  -5.1491
    -4.5216  -4.4768  -0.1280   0.1655   0.1920   0.8458   0.9149   1.2117
     1.5389   1.6304   1.9809   2.1972   2.2408   2.5975   2.6332   2.9249
     2.9380   3.0972   3.2007   3.3174   3.4781   3.5409   3.7661   3.8347
     4.0287   4.4830   5.8396   6.4782   6.6560   6.8411   6.9668   7.1342
     7.1841   7.5499

          k = 1.2703 0.0645-0.2971 ( 36480 PWs)   bands (ev):

   -44.1394 -44.1394 -22.2481 -22.2481 -22.2248 -22.2248 -22.0692 -22.0692
    -6.9736  -6.9736  -6.6561  -6.6561  -5.5942  -5.5942  -5.1627  -5.1627
    -4.4974  -4.4974  -0.0000  -0.0000   0.4927   0.4927   1.0425   1.0425
     1.5735   1.5735   2.1032   2.1032   2.4784   2.4784   2.8307   2.8307
     3.0196   3.0196   3.1554   3.1554   3.5888   3.5888   3.8879   3.8879
     4.1184   4.1184   6.2410   6.2410   6.5002   6.5002   7.1315   7.1315
     7.4273   7.4273

          k =-0.5081-0.3869 0.0000 ( 36463 PWs)   bands (ev):

   -44.1403 -44.1403 -22.2528 -22.2528 -22.2018 -22.2018 -22.0719 -22.0718
    -7.5957  -7.3701  -6.9045  -6.7657  -5.9431  -5.2509  -5.0275  -4.6620
    -4.5784  -4.4718   0.1352   0.5442   0.6731   1.0738   1.1896   1.5383
     1.6520   1.7531   1.9114   2.0560   2.1727   2.3843   2.5062   3.2887
     3.4640   3.5160   3.5409   3.6321   3.7099   3.7268   3.9486   4.1214
     4.3134   4.9528   5.7314   6.0509   6.2660   6.8062   6.8461   6.8874
     7.3622   7.4820

          k =-0.5081-0.3869 0.1485 ( 36477 PWs)   bands (ev):

   -44.1403 -44.1403 -22.2528 -22.2528 -22.2018 -22.2018 -22.0719 -22.0718
    -7.5702  -7.4147  -6.8738  -6.7797  -5.8747  -5.4378  -4.8840  -4.6274
    -4.6223  -4.4831   0.1882   0.5405   0.7576   0.8855   1.1865   1.3397
     1.6136   1.7096   1.9750   2.0459   2.3790   2.5212   2.8431   3.2283
     3.4637   3.4680   3.5075   3.5608   3.6566   3.7454   3.9095   4.1168
     4.2159   4.5199   6.1618   6.2789   6.3358   6.7267   6.8062   6.9232
     7.1836   7.4839

          k =-0.5081-0.3869-0.2971 ( 36492 PWs)   bands (ev):

   -44.1403 -44.1403 -22.2528 -22.2528 -22.2018 -22.2018 -22.0719 -22.0719
    -7.5010  -7.5010  -6.8195  -6.8195  -5.6888  -5.6888  -4.7329  -4.7329
    -4.5407  -4.5407   0.3542   0.3542   0.9730   0.9730   1.0041   1.0041
     1.6520   1.6520   2.0118   2.0118   2.7441   2.7441   3.1062   3.1062
     3.3679   3.3679   3.5035   3.5035   3.6815   3.6815   3.9074   3.9074
     4.2482   4.2482   6.3823   6.3823   6.6918   6.6918   6.8130   6.8130
     7.2344   7.2344

          k =-0.2541-0.3224 0.0000 ( 36485 PWs)   bands (ev):

   -44.1412 -44.1412 -22.2575 -22.2575 -22.1787 -22.1787 -22.0746 -22.0745
    -7.9558  -7.7218  -7.0533  -6.8859  -6.1322  -5.3724  -4.8574  -4.7625
    -4.6862  -3.9678   0.3953   0.9025   1.0305   1.1205   1.3344   1.5905
     1.6549   1.7039   1.8559   2.4864   2.5614   3.2198   3.4064   3.5451
     3.6070   3.7042   3.7116   3.8565   3.9553   4.1349   4.1782   4.2810
     4.3221   4.6605   6.0441   6.0561   6.3213   6.5553   6.5829   6.7981
     6.9297   7.0574

          k =-0.2541-0.3224 0.1485 ( 36445 PWs)   bands (ev):

   -44.1412 -44.1411 -22.2575 -22.2575 -22.1787 -22.1787 -22.0746 -22.0745
    -7.9290  -7.7670  -7.0166  -6.9024  -6.0602  -5.5686  -4.8003  -4.7060
    -4.5942  -4.0538   0.4581   0.8698   0.9428   1.1692   1.3109   1.3163
     1.7542   1.7928   2.2075   2.4895   2.5508   2.9504   3.4131   3.5005
     3.5361   3.5701   3.6567   3.9038   3.9352   4.1086   4.2566   4.3127
     4.6651   4.7963   5.8689   6.0433   6.1423   6.3686   6.5066   6.7685
     7.1414   7.2357

          k =-0.2541-0.3224-0.2971 ( 36442 PWs)   bands (ev):

   -44.1412 -44.1412 -22.2575 -22.2575 -22.1787 -22.1787 -22.0745 -22.0745
    -7.8564  -7.8564  -6.9503  -6.9503  -5.8558  -5.8558  -4.7509  -4.7509
    -4.2872  -4.2872   0.6359   0.6359   1.0635   1.0635   1.2430   1.2430
     1.8865   1.8865   2.4666   2.4666   2.6555   2.6555   3.2700   3.2700
     3.5387   3.5387   3.8037   3.8037   4.0690   4.0690   4.2919   4.2919
     4.9879   4.9879   5.7323   5.7323   6.1916   6.1916   6.5848   6.5848
     7.3497   7.3497

          k = 0.0000-0.2579 0.0000 ( 36445 PWs)   bands (ev):

   -44.1415 -44.1415 -22.2595 -22.2595 -22.1691 -22.1691 -22.0757 -22.0756
    -8.0815  -7.8423  -7.1190  -6.9331  -6.1895  -5.4205  -4.8448  -4.7809
    -4.7289  -3.7962   0.3127   0.7845   0.9617   1.2101   1.3828   1.6343
     2.0074   2.1663   2.2742   2.8126   2.9287   3.0122   3.2777   3.4841
     3.5422   3.6611   3.8576   3.9560   4.1580   4.2466   4.3231   4.6948
     4.7125   5.3194   5.7045   5.9666   6.0101   6.0255   6.1165   6.7944
     7.0545   7.1224

          k = 0.0000-0.2579 0.1485 ( 36452 PWs)   bands (ev):

   -44.1415 -44.1415 -22.2595 -22.2595 -22.1691 -22.1691 -22.0757 -22.0756
    -8.0541  -7.8885  -7.0780  -6.9510  -6.1190  -5.6211  -4.8247  -4.7504
    -4.5540  -3.9063   0.3878   0.9311   0.9703   1.0246   1.1804   1.8873
     2.0265   2.0822   2.1375   2.8362   2.9166   3.0759   3.3355   3.4866
     3.6592   3.6763   3.9082   3.9122   4.1924   4.2378   4.2689   4.6911
     4.7075   4.8969   5.8990   5.9720   6.0116   6.1607   6.3961   6.6209
     6.8717   7.0409

          k = 0.0000-0.2579-0.2971 ( 36454 PWs)   bands (ev):

   -44.1415 -44.1415 -22.2595 -22.2595 -22.1691 -22.1691 -22.0756 -22.0756
    -7.9799  -7.9799  -7.0038  -7.0038  -5.9145  -5.9145  -4.7872  -4.7872
    -4.1932  -4.1932   0.6203   0.6203   1.0685   1.0685   1.3642   1.3642
     2.0774   2.0774   2.6242   2.6242   2.8819   2.8819   3.4693   3.4693
     3.7787   3.7787   4.0601   4.0601   4.1183   4.1183   4.3709   4.3709
     4.6963   4.6963   5.9547   5.9547   6.2690   6.2690   6.5056   6.5056
     6.8026   6.8026

          k = 1.5243 0.0000 0.0000 ( 36439 PWs)   bands (ev):

   -44.1403 -44.1403 -22.2528 -22.2528 -22.2018 -22.2018 -22.0719 -22.0718
    -7.5929  -7.3696  -6.9049  -6.7669  -5.9464  -5.2512  -5.0301  -4.6638
    -4.5753  -4.4723   0.1307   0.5495   0.6699   1.0729   1.1936   1.6065
     1.6748   1.7224   1.9267   2.0463   2.2133   2.3570   2.5010   3.2499
     3.4724   3.4799   3.5463   3.6289   3.7050   3.7523   3.8723   4.1449
     4.3076   4.9571   5.7277   6.0140   6.2972   6.8101   6.8553   6.9487
     7.3217   7.5238

          k = 1.5243 0.0000 0.1485 ( 36476 PWs)   bands (ev):

   -44.1403 -44.1403 -22.2528 -22.2528 -22.2018 -22.2018 -22.0719 -22.0718
    -7.5677  -7.4136  -6.8749  -6.7812  -5.8773  -5.4383  -4.8874  -4.6255
    -4.6240  -4.4817   0.1852   0.5465   0.7555   0.8796   1.1880   1.3466
     1.6977   1.7179   1.9673   2.0221   2.4174   2.4977   2.8420   3.1950
     3.4127   3.4794   3.5107   3.5604   3.6727   3.7300   3.8869   4.1366
     4.1778   4.5280   6.1367   6.2946   6.3294   6.6973   6.8445   6.9943
     7.1387   7.5031

          k = 1.5243 0.0000-0.2971 ( 36508 PWs)   bands (ev):

   -44.1403 -44.1403 -22.2528 -22.2528 -22.2018 -22.2018 -22.0719 -22.0719
    -7.4990  -7.4990  -6.8212  -6.8212  -5.6901  -5.6901  -4.7361  -4.7361
    -4.5385  -4.5385   0.3549   0.3549   0.9705   0.9705   1.0033   1.0033
     1.7105   1.7105   1.9887   1.9887   2.7700   2.7700   3.0617   3.0617
     3.3693   3.3693   3.4922   3.4922   3.6770   3.6770   3.9081   3.9081
     4.2360   4.2360   6.3693   6.3693   6.6925   6.6925   6.8187   6.8187
     7.2528   7.2528

          k =-0.2541-0.4514 0.0000 ( 36444 PWs)   bands (ev):

   -44.1412 -44.1412 -22.2575 -22.2575 -22.1787 -22.1787 -22.0746 -22.0745
    -7.9513  -7.7210  -7.0500  -6.8871  -6.1446  -5.3755  -4.8696  -4.7589
    -4.6809  -3.9686   0.4072   0.9122   1.0211   1.2441   1.3423   1.6727
     1.6818   1.7051   1.8921   2.4129   2.4896   3.2451   3.3958   3.4715
     3.4780   3.6994   3.7718   3.8574   3.9136   4.0741   4.1032   4.2178
     4.3169   4.6856   6.0756   6.1205   6.3466   6.5708   6.6059   6.8398
     6.8428   7.0258

          k =-0.2541-0.4514 0.1485 ( 36461 PWs)   bands (ev):

   -44.1412 -44.1412 -22.2575 -22.2575 -22.1787 -22.1787 -22.0746 -22.0745
    -7.9248  -7.7652  -7.0152  -6.9038  -6.0705  -5.5723  -4.8117  -4.7027
    -4.5905  -4.0539   0.4695   0.8757   0.9465   1.2665   1.3350   1.3862
     1.7838   1.7977   2.2593   2.4190   2.4741   2.9707   3.3487   3.3961
     3.5172   3.5376   3.7392   3.8786   3.9072   3.9745   4.2341   4.2868
     4.6701   4.8045   5.8671   6.0582   6.1578   6.3763   6.5736   6.7421
     7.1386   7.2223

          k =-0.2541-0.4514-0.2971 ( 36490 PWs)   bands (ev):

   -44.1412 -44.1412 -22.2575 -22.2575 -22.1787 -22.1787 -22.0745 -22.0745
    -7.8531  -7.8531  -6.9512  -6.9512  -5.8621  -5.8621  -4.7548  -4.7548
    -4.2855  -4.2855   0.6451   0.6451   1.0723   1.0723   1.3365   1.3365
     1.9002   1.9002   2.4268   2.4268   2.6578   2.6578   3.2577   3.2577
     3.4248   3.4248   3.8585   3.8585   3.9905   3.9905   4.2616   4.2616
     5.0018   5.0018   5.7129   5.7129   6.1824   6.1824   6.6331   6.6331
     7.3446   7.3446

          k = 0.0000-0.3869 0.0000 ( 36477 PWs)   bands (ev):

   -44.1415 -44.1415 -22.2595 -22.2595 -22.1691 -22.1691 -22.0757 -22.0756
    -8.0759  -7.8412  -7.1126  -6.9345  -6.2086  -5.4262  -4.8657  -4.7706
    -4.7231  -3.7973   0.3348   0.7948   1.1092   1.2722   1.4074   1.7079
     2.0073   2.1650   2.2729   2.8316   2.9348   3.0393   3.1622   3.2421
     3.5150   3.6414   3.8296   3.9584   4.0181   4.0707   4.3235   4.6651
     4.7104   5.2964   5.7538   6.0293   6.0430   6.0769   6.1740   6.7528
     7.0540   7.0544

          k = 0.0000-0.3869 0.1485 ( 36452 PWs)   bands (ev):

   -44.1415 -44.1415 -22.2595 -22.2595 -22.1691 -22.1691 -22.0757 -22.0756
    -8.0489  -7.8862  -7.0742  -6.9524  -6.1352  -5.6274  -4.8391  -4.7452
    -4.5509  -3.9066   0.4084   0.9500   1.0028   1.1686   1.2550   1.9011
     2.0264   2.1276   2.1366   2.8531   2.9244   3.0372   3.1861   3.3339
     3.5177   3.7466   3.8858   3.9263   4.0631   4.1093   4.2278   4.6739
     4.7048   4.8957   5.9498   6.0186   6.0485   6.1756   6.4094   6.5892
     6.8743   6.9875

          k = 0.0000-0.3869-0.2971 ( 36454 PWs)   bands (ev):

   -44.1415 -44.1415 -22.2595 -22.2595 -22.1691 -22.1691 -22.0756 -22.0756
    -7.9758  -7.9758  -7.0038  -7.0038  -5.9250  -5.9250  -4.7917  -4.7917
    -4.1917  -4.1917   0.6415   0.6415   1.1858   1.1858   1.3819   1.3819
     2.0770   2.0770   2.6495   2.6495   2.8941   2.8941   3.2285   3.2285
     3.8278   3.8278   4.0121   4.0121   4.0391   4.0391   4.3335   4.3335
     4.6904   4.6904   5.9705   5.9705   6.2980   6.2980   6.5138   6.5138
     6.7635   6.7635

          k =-2.0325 0.0000 0.0000 ( 36452 PWs)   bands (ev):

   -44.1415 -44.1415 -22.2595 -22.2595 -22.1691 -22.1691 -22.0757 -22.0756
    -8.0735  -7.8408  -7.1101  -6.9347  -6.2168  -5.4285  -4.8735  -4.7656
    -4.7224  -3.7978   0.3408   0.7995   1.2356   1.2437   1.4170   1.7520
     2.0073   2.1644   2.2730   2.8400   2.9371   3.0550   3.0561   3.1233
     3.4946   3.7999   3.8178   3.8735   3.9612   3.9885   4.3236   4.6529
     4.7096   5.2890   5.7739   6.0374   6.0831   6.0930   6.1920   6.7119
     7.0410   7.0543

          k =-2.0325 0.0000 0.1485 ( 36456 PWs)   bands (ev):

   -44.1415 -44.1415 -22.2595 -22.2595 -22.1691 -22.1691 -22.0757 -22.0756
    -8.0467  -7.8852  -7.0728  -6.9527  -6.1420  -5.6301  -4.8447  -4.7434
    -4.5498  -3.9067   0.4137   0.9578   1.0153   1.2532   1.2834   1.9076
     2.0263   2.1362   2.1504   2.8605   2.9276   2.9793   3.0680   3.3085
     3.4890   3.8489   3.8748   3.9442   3.9739   4.0165   4.2234   4.6671
     4.7037   4.8957   5.9738   6.0404   6.0548   6.1819   6.4121   6.5636
     6.8754   6.9721

          k =-2.0325 0.0000-0.2971 ( 36460 PWs)   bands (ev):

   -44.1415 -44.1415 -22.2595 -22.2595 -22.1691 -22.1691 -22.0756 -22.0756
    -7.9740  -7.9740  -7.0038  -7.0038  -5.9293  -5.9293  -4.7937  -4.7937
    -4.1911  -4.1911   0.6470   0.6470   1.2465   1.2465   1.3912   1.3912
     2.0768   2.0768   2.6554   2.6554   2.8993   2.8993   3.1172   3.1172
     3.8985   3.8985   3.9281   3.9281   4.0302   4.0302   4.3204   4.3204
     4.6880   4.6880   5.9726   5.9726   6.3086   6.3086   6.5172   6.5172
     6.7461   6.7461

     the Fermi energy is     5.6110 ev

!    total energy              =   -4240.94697392 Ry

     total all-electron energy =   -150287.640669 Ry
     estimated scf accuracy    <          7.6E-11 Ry
     smearing contrib. (-TS)   =       0.00000318 Ry
     internal energy E=F+TS    =   -4240.94697710 Ry

     The total energy is F=E-TS. E is the sum of the following terms:
     one-electron contribution =    -167.96030185 Ry
     hartree contribution      =     117.44402893 Ry
     xc contribution           =    -201.56639528 Ry
     ewald contribution        =    -221.33307434 Ry
     one-center paw contrib.   =   -3767.53123456 Ry

     convergence has been achieved in  20 iterations

     Forces acting on atoms (cartesian axes, Ry/au):

     atom    1 type  1   force =     0.00000000    0.01102174    0.00000000
     atom    2 type  1   force =    -0.00000000   -0.01102174    0.00000000
     atom    3 type  2   force =     0.00000000   -0.00006390    0.00000000
     atom    4 type  2   force =     0.00000000    0.00006390    0.00000000
     atom    5 type  2   force =     0.00000000   -0.00253448   -0.00125164
     atom    6 type  2   force =     0.00000000    0.00253448    0.00125164
     atom    7 type  2   force =     0.00000000   -0.00253448    0.00125164
     atom    8 type  2   force =     0.00000000    0.00253448   -0.00125164
     atom    9 type  2   force =     0.00000000   -0.01866951   -0.02066093
     atom   10 type  2   force =     0.00000000    0.01866951    0.02066093
     atom   11 type  2   force =     0.00000000   -0.01866951    0.02066093
     atom   12 type  2   force =     0.00000000    0.01866951   -0.02066093

     Total force =     0.058109     Total SCF correction =     0.000012


     Computing stress (Cartesian axis) and pressure

          total   stress  (Ry/bohr**3)                   (kbar)     P=        4.80
   0.00003307  -0.00000000   0.00000000            4.86       -0.00        0.00
  -0.00000000   0.00002059   0.00000000           -0.00        3.03        0.00
   0.00000000   0.00000000   0.00004420            0.00        0.00        6.50

 
     init_run     :     35.48s CPU     36.33s WALL (       1 calls)
     electrons    :   1828.20s CPU   1848.61s WALL (       1 calls)
     forces       :      6.61s CPU      6.83s WALL (       1 calls)
     stress       :     40.62s CPU     41.24s WALL (       1 calls)

     Called by init_run:
     wfcinit      :     30.64s CPU     30.92s WALL (       1 calls)
     potinit      :      1.46s CPU      1.51s WALL (       1 calls)
     hinit0       :      1.69s CPU      1.91s WALL (       1 calls)

     Called by electrons:
     c_bands      :   1470.07s CPU   1478.29s WALL (      21 calls)
     sum_band     :    318.56s CPU    325.74s WALL (      21 calls)
     v_of_rho     :      9.89s CPU     10.59s WALL (      21 calls)
     newd         :     20.78s CPU     25.32s WALL (      21 calls)
     PAW_pot      :      7.86s CPU      7.87s WALL (      21 calls)
     mix_rho      :      1.90s CPU      1.95s WALL (      21 calls)

     Called by c_bands:
     init_us_2    :     15.50s CPU     15.56s WALL (    2835 calls)
     cegterg      :   1380.93s CPU   1388.37s WALL (    1323 calls)

     Called by *egterg:
     cdiaghg      :     28.40s CPU     28.52s WALL (    8244 calls)
     h_psi        :   1195.50s CPU   1202.69s WALL (    8370 calls)
     s_psi        :     53.75s CPU     53.82s WALL (    8370 calls)
     g_psi        :      2.32s CPU      2.34s WALL (    6984 calls)

     Called by h_psi:
     h_psi:calbec :     45.86s CPU     45.96s WALL (    8370 calls)
     vloc_psi     :   1091.82s CPU   1098.74s WALL (    8370 calls)
     add_vuspsi   :     53.57s CPU     53.66s WALL (    8370 calls)

     General routines
     calbec       :     60.39s CPU     60.54s WALL (   10008 calls)
     fft          :      8.83s CPU      9.24s WALL (     297 calls)
     ffts         :      0.22s CPU      0.22s WALL (      42 calls)
     fftw         :   1096.17s CPU   1103.07s WALL (  458584 calls)
     interpolate  :      0.76s CPU      0.77s WALL (      21 calls)
 
     Parallel routines
     fft_scatt_xy :    296.77s CPU    298.62s WALL (  458923 calls)
     fft_scatt_yz :    202.13s CPU    203.93s WALL (  458923 calls)
 
     PWSCF        :  31m51.65s CPU  32m19.48s WALL

 
   This run was terminated on:  15:18:39  19Nov2021            

=------------------------------------------------------------------------------=
   JOB DONE.
=------------------------------------------------------------------------------=
