
     Program PWSCF v.6.7MaX starts on 19Nov2021 at 14:46:19 

     This program is part of the open-source Quantum ESPRESSO suite
     for quantum simulation of materials; please cite
         "P. Giannozzi et al., J. Phys.:Condens. Matter 21 395502 (2009);
         "P. Giannozzi et al., J. Phys.:Condens. Matter 29 465901 (2017);
          URL http://www.quantum-espresso.org", 
     in publications or presentations arising from this work. More details at
     http://www.quantum-espresso.org/quote

     Parallel version (MPI), running on    10 processors

     MPI processes distributed on     1 nodes
     R & G space division:  proc/nbgrp/npool/nimage =      10
     Waiting for input...
     Reading input from standard input

     Current dimensions of program PWSCF are:
     Max number of different atomic species (ntypx) = 10
     Max number of k-points (npk) =  40000
     Max angular momentum in pseudopotentials (lmaxx) =  3
     file Zr.pbe-spn-kjpaw_psl.1.0.0.UPF: wavefunction(s)  4S 4P renormalized
     file Te.pbe-n-kjpaw_psl.1.0.0.UPF: wavefunction(s)  5S 5P renormalized

     Subspace diagonalization in iterative solution of the eigenvalue problem:
     a serial algorithm will be used

     Message from routine setup:
     using ibrav=0 with symmetry is DISCOURAGED, use correct ibrav instead
 
     Parallelization info
     --------------------
     sticks:   dense  smooth     PW     G-vecs:    dense   smooth      PW
     Min         734     293     87               115340    29174    4753
     Max         735     295     88               115345    29176    4760
     Sum        7345    2937    873              1153415   291749   47557
 


     bravais-lattice index     =            0
     lattice parameter (alat)  =      15.5510  a.u.
     unit-cell volume          =    3018.5011 (a.u.)^3
     number of atoms/cell      =           12
     number of atomic types    =            2
     number of electrons       =        84.00
     number of Kohn-Sham states=           50
     kinetic-energy cutoff     =      80.0000  Ry
     charge density cutoff     =     800.0000  Ry
     scf convergence threshold =      1.0E-10
     mixing beta               =       0.7000
     number of iterations used =            8  plain     mixing
     Exchange-correlation= SLA  PW   PBX  PBC
                           (   1   4   3   4   0   0   0)

     celldm(1)=  15.551040  celldm(2)=   0.000000  celldm(3)=   0.000000
     celldm(4)=   0.000000  celldm(5)=   0.000000  celldm(6)=   0.000000

     crystal axes: (cart. coord. in units of alat)
               a(1) = (   0.246007  -0.969268   0.000000 )  
               a(2) = (   0.246007   0.969268   0.000000 )  
               a(3) = (   0.000000   0.000000   1.683031 )  

     reciprocal axes: (cart. coord. in units 2 pi/alat)
               b(1) = (  2.032465 -0.515853  0.000000 )  
               b(2) = (  2.032465  0.515853  0.000000 )  
               b(3) = (  0.000000  0.000000  0.594166 )  


     PseudoPot. # 1 for Zr read from file:
     pseudo/Zr.pbe-spn-kjpaw_psl.1.0.0.UPF
     MD5 check sum: 02112c41713a0468aff2bb39ef194e36
     Pseudo is Projector augmented-wave + core cor, Zval = 12.0
     Generated using &quot;atomic&quot; code by A. Dal Corso  v.6.2.2
     Shape of augmentation charge: PSQ
     Using radial grid of 1225 points,  6 beta functions with: 
                l(1) =   0
                l(2) =   0
                l(3) =   1
                l(4) =   1
                l(5) =   2
                l(6) =   2
     Q(r) pseudized with 0 coefficients 


     PseudoPot. # 2 for Te read from file:
     pseudo/Te.pbe-n-kjpaw_psl.1.0.0.UPF
     MD5 check sum: 66247bff2bd9dbf220fbb0bf5ab56e9d
     Pseudo is Projector augmented-wave + core cor, Zval =  6.0
     Generated using &quot;atomic&quot; code by A. Dal Corso  v.6.3
     Shape of augmentation charge: PSQ
     Using radial grid of 1245 points,  6 beta functions with: 
                l(1) =   0
                l(2) =   0
                l(3) =   1
                l(4) =   1
                l(5) =   2
                l(6) =   2
     Q(r) pseudized with 0 coefficients 


     atomic species   valence    mass     pseudopotential
        Zr            12.00    91.22000     Zr( 1.00)
        Te             6.00   127.60000     Te( 1.00)

      8 Sym. Ops., with inversion, found ( 4 have fractional translation)



   Cartesian axes

     site n.     atom                  positions (alat units)
         1           Zr  tau(   1) = (   0.0000000   0.6012210   0.4207578  )
         2           Zr  tau(   2) = (   0.2460067   0.3680471   1.2622733  )
         3           Te  tau(   3) = (   0.2460067   0.3341602   0.4207578  )
         4           Te  tau(   4) = (   0.0000000   0.6351079   1.2622733  )
         5           Te  tau(   5) = (   0.2460067   0.8118225   0.2534263  )
         6           Te  tau(   6) = (   0.0000000   0.1574457   1.4296048  )
         7           Te  tau(   7) = (   0.2460067   0.8118225   0.5880892  )
         8           Te  tau(   8) = (   0.0000000   0.1574457   1.0949418  )
         9           Te  tau(   9) = (   0.0000000   0.4225762   0.7382138  )
        10           Te  tau(  10) = (   0.2460067   0.5466919   0.9448172  )
        11           Te  tau(  11) = (   0.0000000   0.4225762   0.1033017  )
        12           Te  tau(  12) = (   0.2460067   0.5466919   1.5797294  )

     number of k points=    63  Methfessel-Paxton smearing, width (Ry)=  0.0030
                       cart. coord. in units 2pi/alat
        k(    1) = (   0.0000000   0.0000000   0.0000000), wk =   0.0078125
        k(    2) = (   0.0000000   0.0000000   0.1485415), wk =   0.0156250
        k(    3) = (   0.0000000   0.0000000  -0.2970830), wk =   0.0078125
        k(    4) = (   0.2540581   0.0644816   0.0000000), wk =   0.0312500
        k(    5) = (   0.2540581   0.0644816   0.1485415), wk =   0.0625000
        k(    6) = (   0.2540581   0.0644816  -0.2970830), wk =   0.0312500
        k(    7) = (   0.5081162   0.1289633   0.0000000), wk =   0.0312500
        k(    8) = (   0.5081162   0.1289633   0.1485415), wk =   0.0625000
        k(    9) = (   0.5081162   0.1289633  -0.2970830), wk =   0.0312500
        k(   10) = (   0.7621743   0.1934449   0.0000000), wk =   0.0312500
        k(   11) = (   0.7621743   0.1934449   0.1485415), wk =   0.0625000
        k(   12) = (   0.7621743   0.1934449  -0.2970830), wk =   0.0312500
        k(   13) = (  -1.0162324  -0.2579266   0.0000000), wk =   0.0156250
        k(   14) = (  -1.0162324  -0.2579266   0.1485415), wk =   0.0312500
        k(   15) = (  -1.0162324  -0.2579266  -0.2970830), wk =   0.0156250
        k(   16) = (   0.5081162   0.0000000   0.0000000), wk =   0.0156250
        k(   17) = (   0.5081162   0.0000000   0.1485415), wk =   0.0312500
        k(   18) = (   0.5081162   0.0000000  -0.2970830), wk =   0.0156250
        k(   19) = (   0.7621743   0.0644816   0.0000000), wk =   0.0312500
        k(   20) = (   0.7621743   0.0644816   0.1485415), wk =   0.0625000
        k(   21) = (   0.7621743   0.0644816  -0.2970830), wk =   0.0312500
        k(   22) = (   1.0162324   0.1289633   0.0000000), wk =   0.0312500
        k(   23) = (   1.0162324   0.1289633   0.1485415), wk =   0.0625000
        k(   24) = (   1.0162324   0.1289633  -0.2970830), wk =   0.0312500
        k(   25) = (  -0.7621743  -0.3224082   0.0000000), wk =   0.0312500
        k(   26) = (  -0.7621743  -0.3224082   0.1485415), wk =   0.0625000
        k(   27) = (  -0.7621743  -0.3224082  -0.2970830), wk =   0.0312500
        k(   28) = (  -0.5081162  -0.2579266   0.0000000), wk =   0.0312500
        k(   29) = (  -0.5081162  -0.2579266   0.1485415), wk =   0.0625000
        k(   30) = (  -0.5081162  -0.2579266  -0.2970830), wk =   0.0312500
        k(   31) = (  -0.2540581  -0.1934449   0.0000000), wk =   0.0312500
        k(   32) = (  -0.2540581  -0.1934449   0.1485415), wk =   0.0625000
        k(   33) = (  -0.2540581  -0.1934449  -0.2970830), wk =   0.0312500
        k(   34) = (   0.0000000  -0.1289633   0.0000000), wk =   0.0156250
        k(   35) = (   0.0000000  -0.1289633   0.1485415), wk =   0.0312500
        k(   36) = (   0.0000000  -0.1289633  -0.2970830), wk =   0.0156250
        k(   37) = (   1.0162324   0.0000000   0.0000000), wk =   0.0156250
        k(   38) = (   1.0162324   0.0000000   0.1485415), wk =   0.0312500
        k(   39) = (   1.0162324   0.0000000  -0.2970830), wk =   0.0156250
        k(   40) = (   1.2702905   0.0644816   0.0000000), wk =   0.0312500
        k(   41) = (   1.2702905   0.0644816   0.1485415), wk =   0.0625000
        k(   42) = (   1.2702905   0.0644816  -0.2970830), wk =   0.0312500
        k(   43) = (  -0.5081162  -0.3868899   0.0000000), wk =   0.0312500
        k(   44) = (  -0.5081162  -0.3868899   0.1485415), wk =   0.0625000
        k(   45) = (  -0.5081162  -0.3868899  -0.2970830), wk =   0.0312500
        k(   46) = (  -0.2540581  -0.3224082   0.0000000), wk =   0.0312500
        k(   47) = (  -0.2540581  -0.3224082   0.1485415), wk =   0.0625000
        k(   48) = (  -0.2540581  -0.3224082  -0.2970830), wk =   0.0312500
        k(   49) = (   0.0000000  -0.2579266   0.0000000), wk =   0.0156250
        k(   50) = (   0.0000000  -0.2579266   0.1485415), wk =   0.0312500
        k(   51) = (   0.0000000  -0.2579266  -0.2970830), wk =   0.0156250
        k(   52) = (   1.5243485   0.0000000   0.0000000), wk =   0.0156250
        k(   53) = (   1.5243485   0.0000000   0.1485415), wk =   0.0312500
        k(   54) = (   1.5243485   0.0000000  -0.2970830), wk =   0.0156250
        k(   55) = (  -0.2540581  -0.4513715   0.0000000), wk =   0.0312500
        k(   56) = (  -0.2540581  -0.4513715   0.1485415), wk =   0.0625000
        k(   57) = (  -0.2540581  -0.4513715  -0.2970830), wk =   0.0312500
        k(   58) = (   0.0000000  -0.3868899   0.0000000), wk =   0.0156250
        k(   59) = (   0.0000000  -0.3868899   0.1485415), wk =   0.0312500
        k(   60) = (   0.0000000  -0.3868899  -0.2970830), wk =   0.0156250
        k(   61) = (  -2.0324647   0.0000000   0.0000000), wk =   0.0078125
        k(   62) = (  -2.0324647   0.0000000   0.1485415), wk =   0.0156250
        k(   63) = (  -2.0324647   0.0000000  -0.2970830), wk =   0.0078125

     Dense  grid:  1153415 G-vectors     FFT dimensions: ( 144, 144, 240)

     Smooth grid:   291749 G-vectors     FFT dimensions: (  90,  90, 150)

     Estimated max dynamical RAM per process >     657.19 MB

     Estimated total dynamical RAM >       6.42 GB

     Initial potential from superposition of free atoms

     starting charge   83.99353, renormalised to   84.00000
     Starting wfcs are   66 randomized atomic wfcs
     Checking if some PAW data can be deallocated... 

     total cpu time spent up to now is       43.2 secs

     Self-consistent Calculation

     iteration #  1     ecut=    80.00 Ry     beta= 0.70
     Davidson diagonalization with overlap
     ethr =  1.00E-02,  avg # of iterations =  2.1

     Threshold (ethr) on eigenvalues was too large:
     Diagonalizing with lowered threshold

     Davidson diagonalization with overlap
     ethr =  4.56E-04,  avg # of iterations =  4.0

     total cpu time spent up to now is      203.8 secs

     total energy              =   -4240.71136336 Ry
     estimated scf accuracy    <       0.44881182 Ry

     iteration #  2     ecut=    80.00 Ry     beta= 0.70
     Davidson diagonalization with overlap
     ethr =  5.34E-04,  avg # of iterations =  8.1

     total cpu time spent up to now is      317.6 secs

     total energy              =   -4240.61177321 Ry
     estimated scf accuracy    <       2.04662338 Ry

     iteration #  3     ecut=    80.00 Ry     beta= 0.70
     Davidson diagonalization with overlap
     ethr =  5.34E-04,  avg # of iterations =  5.4

     total cpu time spent up to now is      411.7 secs

     total energy              =   -4240.92727984 Ry
     estimated scf accuracy    <       0.00803885 Ry

     iteration #  4     ecut=    80.00 Ry     beta= 0.70
     Davidson diagonalization with overlap
     c_bands:  2 eigenvalues not converged
     c_bands:  2 eigenvalues not converged
     c_bands:  1 eigenvalues not converged
     c_bands:  1 eigenvalues not converged
     c_bands:  2 eigenvalues not converged
     c_bands:  1 eigenvalues not converged
     c_bands:  1 eigenvalues not converged
     c_bands:  1 eigenvalues not converged
     c_bands:  1 eigenvalues not converged
     c_bands:  1 eigenvalues not converged
     c_bands:  1 eigenvalues not converged
     c_bands:  1 eigenvalues not converged
     c_bands:  1 eigenvalues not converged
     c_bands:  2 eigenvalues not converged
     c_bands:  1 eigenvalues not converged
     ethr =  9.57E-06,  avg # of iterations = 17.3

     total cpu time spent up to now is      591.2 secs

     total energy              =   -4240.93744771 Ry
     estimated scf accuracy    <       0.04330290 Ry

     iteration #  5     ecut=    80.00 Ry     beta= 0.70
     Davidson diagonalization with overlap
     ethr =  9.57E-06,  avg # of iterations =  6.7

     total cpu time spent up to now is      684.8 secs

     total energy              =   -4240.93930385 Ry
     estimated scf accuracy    <       0.00736741 Ry

     iteration #  6     ecut=    80.00 Ry     beta= 0.70
     Davidson diagonalization with overlap
     ethr =  8.77E-06,  avg # of iterations =  3.0

     total cpu time spent up to now is      761.7 secs

     total energy              =   -4240.93989784 Ry
     estimated scf accuracy    <       0.00104833 Ry

     iteration #  7     ecut=    80.00 Ry     beta= 0.70
     Davidson diagonalization with overlap
     ethr =  1.25E-06,  avg # of iterations = 10.0

     total cpu time spent up to now is      880.1 secs

     total energy              =   -4240.94039535 Ry
     estimated scf accuracy    <       0.00099420 Ry

     iteration #  8     ecut=    80.00 Ry     beta= 0.70
     Davidson diagonalization with overlap
     ethr =  1.18E-06,  avg # of iterations =  2.1

     total cpu time spent up to now is      949.6 secs

     total energy              =   -4240.94043190 Ry
     estimated scf accuracy    <       0.00013447 Ry

     iteration #  9     ecut=    80.00 Ry     beta= 0.70
     Davidson diagonalization with overlap
     ethr =  1.60E-07,  avg # of iterations =  6.2

     total cpu time spent up to now is     1042.3 secs

     total energy              =   -4240.94047778 Ry
     estimated scf accuracy    <       0.00001934 Ry

     iteration # 10     ecut=    80.00 Ry     beta= 0.70
     Davidson diagonalization with overlap
     ethr =  2.30E-08,  avg # of iterations =  3.0

     total cpu time spent up to now is     1116.6 secs

     total energy              =   -4240.94048029 Ry
     estimated scf accuracy    <       0.00000171 Ry

     iteration # 11     ecut=    80.00 Ry     beta= 0.70
     Davidson diagonalization with overlap
     ethr =  2.04E-09,  avg # of iterations =  7.3

     total cpu time spent up to now is     1221.1 secs

     total energy              =   -4240.94048157 Ry
     estimated scf accuracy    <       0.00000070 Ry

     iteration # 12     ecut=    80.00 Ry     beta= 0.70
     Davidson diagonalization with overlap
     ethr =  8.32E-10,  avg # of iterations =  2.4

     total cpu time spent up to now is     1292.7 secs

     total energy              =   -4240.94048162 Ry
     estimated scf accuracy    <       0.00000009 Ry

     iteration # 13     ecut=    80.00 Ry     beta= 0.70
     Davidson diagonalization with overlap
     ethr =  1.05E-10,  avg # of iterations =  6.3

     total cpu time spent up to now is     1390.7 secs

     total energy              =   -4240.94048167 Ry
     estimated scf accuracy    <       0.00000003 Ry

     iteration # 14     ecut=    80.00 Ry     beta= 0.70
     Davidson diagonalization with overlap
     ethr =  3.17E-11,  avg # of iterations =  1.9

     total cpu time spent up to now is     1459.3 secs

     total energy              =   -4240.94048167 Ry
     estimated scf accuracy    <       0.00000001 Ry

     iteration # 15     ecut=    80.00 Ry     beta= 0.70
     Davidson diagonalization with overlap
     ethr =  1.24E-11,  avg # of iterations =  5.4

     total cpu time spent up to now is     1540.4 secs

     total energy              =   -4240.94048167 Ry
     estimated scf accuracy    <          2.2E-10 Ry

     iteration # 16     ecut=    80.00 Ry     beta= 0.70
     Davidson diagonalization with overlap
     ethr =  2.58E-13,  avg # of iterations =  8.3

     total cpu time spent up to now is     1646.0 secs

     total energy              =   -4240.94048167 Ry
     estimated scf accuracy    <          6.7E-10 Ry

     iteration # 17     ecut=    80.00 Ry     beta= 0.70
     Davidson diagonalization with overlap
     ethr =  2.58E-13,  avg # of iterations =  2.3

     total cpu time spent up to now is     1717.7 secs

     total energy              =   -4240.94048167 Ry
     estimated scf accuracy    <          2.3E-10 Ry

     iteration # 18     ecut=    80.00 Ry     beta= 0.70
     Davidson diagonalization with overlap
     ethr =  2.58E-13,  avg # of iterations =  5.3

     total cpu time spent up to now is     1799.9 secs

     End of self-consistent calculation

          k = 0.0000 0.0000 0.0000 ( 36359 PWs)   bands (ev):

   -44.1459 -44.1459 -22.2611 -22.2610 -22.1714 -22.1714 -22.0816 -22.0814
    -8.1879  -7.9755  -7.1306  -6.9511  -6.1128  -5.4074  -4.7938  -4.7446
    -4.7307  -3.7770   0.2343   0.7863   0.8261   1.1571   1.3025   1.5351
     1.8882   2.0156   2.2670   2.8034   2.9164   2.9852   3.2691   3.3684
     3.8350   3.9300   4.0815   4.0979   4.3405   4.3485   4.4539   4.7065
     4.7316   5.3256   5.6305   5.8761   5.9005   5.9259   6.0390   6.7373
     7.0846   7.2845

          k = 0.0000 0.0000 0.1485 ( 36415 PWs)   bands (ev):

   -44.1459 -44.1459 -22.2611 -22.2610 -22.1714 -22.1714 -22.0816 -22.0815
    -8.1627  -8.0147  -7.0933  -6.9692  -6.0488  -5.5899  -4.7848  -4.7515
    -4.5207  -3.8862   0.3117   0.8483   0.9258   0.9369   1.1138   1.8595
     1.9042   1.9937   2.0084   2.8242   2.9033   3.0380   3.3874   3.4626
     3.7906   3.9793   4.0507   4.1118   4.2726   4.3773   4.4603   4.7036
     4.7249   4.8734   5.8424   5.8697   5.8765   6.1854   6.3089   6.5913
     6.8944   7.1205

          k = 0.0000 0.0000-0.2971 ( 36410 PWs)   bands (ev):

   -44.1459 -44.1459 -22.2611 -22.2611 -22.1714 -22.1714 -22.0815 -22.0815
    -8.0953  -8.0953  -7.0220  -7.0220  -5.8615  -5.8615  -4.7681  -4.7681
    -4.1690  -4.1690   0.5423   0.5423   0.9737   0.9737   1.3453   1.3453
     1.9460   1.9460   2.5602   2.5602   2.8675   2.8675   3.6007   3.6007
     3.9293   3.9293   4.1127   4.1127   4.3043   4.3043   4.4393   4.4393
     4.7109   4.7109   5.8680   5.8680   6.2195   6.2195   6.5255   6.5255
     6.7865   6.7865

          k = 0.2541 0.0645 0.0000 ( 36396 PWs)   bands (ev):

   -44.1456 -44.1456 -22.2591 -22.2591 -22.1810 -22.1810 -22.0805 -22.0804
    -8.0630  -7.8530  -7.0656  -6.9019  -6.0537  -5.3592  -4.7823  -4.7467
    -4.6987  -3.9561   0.3148   0.8984   0.9460   0.9505   1.2609   1.5064
     1.5261   1.5736   1.7782   2.5921   2.6227   3.2092   3.2821   3.7015
     3.7809   3.7874   3.8799   3.9000   4.0739   4.2647   4.3379   4.4166
     4.4603   4.5939   5.9238   5.9809   6.1646   6.4918   6.5112   6.6820
     7.0444   7.2290

          k = 0.2541 0.0645 0.1485 ( 36423 PWs)   bands (ev):

   -44.1456 -44.1456 -22.2591 -22.2591 -22.1810 -22.1810 -22.0805 -22.0804
    -8.0381  -7.8919  -7.0313  -6.9183  -5.9894  -5.5384  -4.7492  -4.7077
    -4.5771  -4.0419   0.3812   0.8127   0.9119   0.9907   1.1951   1.2189
     1.6615   1.7170   2.0887   2.5926   2.6045   2.9488   3.4117   3.4273
     3.5208   3.8455   3.9659   4.0257   4.0623   4.2130   4.4008   4.4321
     4.6845   4.7359   5.8832   6.0076   6.1236   6.2308   6.3056   6.8029
     7.2109   7.2471

          k = 0.2541 0.0645-0.2971 ( 36436 PWs)   bands (ev):

   -44.1456 -44.1456 -22.2591 -22.2591 -22.1810 -22.1810 -22.0804 -22.0804
    -7.9715  -7.9715  -6.9663  -6.9663  -5.8037  -5.8037  -4.7282  -4.7282
    -4.2733  -4.2733   0.5687   0.5687   0.9830   0.9830   1.1112   1.1112
     1.7867   1.7867   2.4875   2.4875   2.6501   2.6501   3.2694   3.2694
     3.6774   3.6774   4.0044   4.0044   4.1665   4.1665   4.4272   4.4272
     4.9281   4.9281   5.7940   5.7940   6.1432   6.1432   6.4694   6.4694
     7.3625   7.3625

          k = 0.5081 0.1290 0.0000 ( 36499 PWs)   bands (ev):

   -44.1447 -44.1447 -22.2544 -22.2544 -22.2039 -22.2039 -22.0779 -22.0777
    -7.6981  -7.4936  -6.9105  -6.7793  -5.8836  -5.2407  -5.0009  -4.6336
    -4.5866  -4.4806   0.0625   0.4734   0.6936   1.0151   1.1638   1.3044
     1.6329   1.7128   1.7960   2.0816   2.1453   2.3892   2.5558   3.4263
     3.4867   3.5504   3.5698   3.6640   3.7670   3.8533   3.9913   4.2215
     4.3161   4.8814   5.8183   6.1562   6.2665   6.6085   6.6426   7.0439
     7.4380   7.5533

          k = 0.5081 0.1290 0.1485 ( 36476 PWs)   bands (ev):

   -44.1447 -44.1447 -22.2544 -22.2544 -22.2039 -22.2039 -22.0778 -22.0778
    -7.6741  -7.5321  -6.8824  -6.7925  -5.8222  -5.4160  -4.8595  -4.6221
    -4.6074  -4.4971   0.1146   0.4481   0.7764   0.8713   1.1729   1.2711
     1.4012   1.5794   2.0044   2.0913   2.3234   2.4864   2.8588   3.3746
     3.4525   3.4985   3.5288   3.6786   3.7557   3.7856   3.8730   4.2543
     4.2987   4.4677   6.2346   6.2788   6.4255   6.6082   6.6981   6.9145
     7.2909   7.5262

          k = 0.5081 0.1290-0.2971 ( 36466 PWs)   bands (ev):

   -44.1447 -44.1447 -22.2544 -22.2544 -22.2039 -22.2039 -22.0778 -22.0778
    -7.6099  -7.6099  -6.8306  -6.8306  -5.6517  -5.6517  -4.7098  -4.7098
    -4.5499  -4.5498   0.2724   0.2724   0.9687   0.9687   0.9913   0.9913
     1.4595   1.4595   2.0550   2.0550   2.6600   2.6600   3.1846   3.1846
     3.3904   3.3904   3.5802   3.5802   3.7536   3.7536   3.9024   3.9024
     4.3356   4.3356   6.4702   6.4702   6.5709   6.5709   6.8839   6.8839
     7.2322   7.2322

          k = 0.7622 0.1934 0.0000 ( 36521 PWs)   bands (ev):

   -44.1438 -44.1438 -22.2497 -22.2497 -22.2268 -22.2268 -22.0752 -22.0751
    -7.1424  -6.9258  -6.7649  -6.6283  -5.7270  -5.5072  -5.1487  -5.1449
    -4.5067  -4.4688  -0.1957   0.0226   0.2439   0.9276   0.9309   1.2965
     1.4881   1.5982   2.0107   2.1951   2.2283   2.2428   2.4498   2.8095
     2.9804   3.2461   3.3567   3.4716   3.5102   3.6685   3.7428   3.7455
     3.8559   4.5827   6.1385   6.4466   6.5402   6.9315   6.9564   7.0149
     7.3838   7.6356

          k = 0.7622 0.1934 0.1485 ( 36503 PWs)   bands (ev):

   -44.1438 -44.1438 -22.2497 -22.2497 -22.2268 -22.2268 -22.0752 -22.0751
    -7.1201  -6.9765  -6.7275  -6.6403  -5.6914  -5.5345  -5.1533  -5.1510
    -4.4992  -4.4728  -0.1627   0.1382   0.1576   0.7959   0.9527   1.2466
     1.4977   1.6010   1.9998   2.0339   2.1404   2.5807   2.7016   2.8949
     2.9412   3.0360   3.2726   3.3591   3.5117   3.6060   3.7405   3.9303
     3.9850   4.4655   5.9693   6.4328   6.7386   6.8808   7.0329   7.0648
     7.1749   7.6588

          k = 0.7622 0.1934-0.2971 ( 36522 PWs)   bands (ev):

   -44.1438 -44.1438 -22.2497 -22.2497 -22.2268 -22.2268 -22.0752 -22.0752
    -7.0586  -7.0586  -6.6751  -6.6751  -5.6090  -5.6090  -5.1571  -5.1571
    -4.4843  -4.4843  -0.0369  -0.0369   0.4580   0.4580   1.0795   1.0795
     1.5567   1.5567   1.9982   1.9982   2.4320   2.4320   2.8439   2.8439
     2.9640   2.9640   3.2730   3.2730   3.5959   3.5959   3.9567   3.9567
     4.0661   4.0661   6.3514   6.3514   6.5216   6.5216   7.0597   7.0597
     7.5514   7.5515

          k =-1.0162-0.2579 0.0000 ( 36506 PWs)   bands (ev):

   -44.1434 -44.1434 -22.2476 -22.2476 -22.2363 -22.2363 -22.0741 -22.0741
    -6.7558  -6.7349  -6.2405  -6.2288  -6.2192  -6.2146  -5.1993  -5.1988
    -4.4487  -4.4193  -0.1304  -0.1112   0.1761   0.1976   1.0112   1.0191
     1.4668   1.6602   2.2140   2.3767   2.3993   2.4257   2.7972   2.8311
     2.8315   2.8662   3.1812   3.2383   3.3035   3.3594   3.4373   3.6250
     3.9449   4.2081   6.6659   6.7363   6.7705   6.7888   7.1117   7.2072
     7.2088   7.2761

          k =-1.0162-0.2579 0.1485 ( 36506 PWs)   bands (ev):

   -44.1434 -44.1434 -22.2476 -22.2476 -22.2363 -22.2363 -22.0741 -22.0741
    -6.7511  -6.7361  -6.2727  -6.2653  -6.1863  -6.1820  -5.1976  -5.1972
    -4.4467  -4.4259  -0.2237  -0.2178   0.3677   0.3757   1.0066   1.0167
     1.4596   1.5909   2.0665   2.1955   2.3445   2.3936   2.6502   2.6670
     2.9268   3.0336   3.0989   3.2076   3.5267   3.5548   3.5851   3.7090
     4.0837   4.2329   6.2466   6.2680   6.5728   6.6499   7.2183   7.2266
     7.4327   7.5026

          k =-1.0162-0.2579-0.2971 ( 36528 PWs)   bands (ev):

   -44.1434 -44.1434 -22.2476 -22.2476 -22.2363 -22.2363 -22.0741 -22.0741
    -6.7417  -6.7417  -6.2868  -6.2868  -6.1679  -6.1679  -5.1958  -5.1958
    -4.4387  -4.4387  -0.2821  -0.2821   0.5511   0.5511   0.9763   0.9763
     1.5051   1.5051   1.9256   1.9256   2.3495   2.3495   2.7594   2.7594
     2.8249   2.8249   3.1937   3.1937   3.6316   3.6316   3.7847   3.7847
     4.3116   4.3116   5.8845   5.8845   6.5157   6.5157   7.2362   7.2362
     7.5684   7.5684

          k = 0.5081 0.0000 0.0000 ( 36503 PWs)   bands (ev):

   -44.1447 -44.1447 -22.2544 -22.2544 -22.2039 -22.2039 -22.0779 -22.0777
    -7.7002  -7.4940  -6.9109  -6.7779  -5.8806  -5.2402  -4.9985  -4.6270
    -4.5944  -4.4801   0.0670   0.4674   0.6930   1.0327   1.1599   1.2574
     1.6272   1.7031   1.7828   2.0888   2.1413   2.3762   2.5585   3.4187
     3.5138   3.5646   3.5917   3.6377   3.7789   3.9047   3.9722   4.2589
     4.3190   4.8727   5.8245   6.1319   6.2997   6.5718   6.5904   7.0816
     7.4442   7.5771

          k = 0.5081 0.0000 0.1485 ( 36453 PWs)   bands (ev):

   -44.1447 -44.1447 -22.2544 -22.2544 -22.2039 -22.2039 -22.0778 -22.0778
    -7.6762  -7.5330  -6.8822  -6.7911  -5.8197  -5.4152  -4.8561  -4.6228
    -4.6066  -4.4990   0.1179   0.4418   0.7789   0.8769   1.1863   1.2493
     1.3655   1.5570   2.0035   2.1054   2.3144   2.4703   2.8591   3.3912
     3.4705   3.4830   3.5405   3.6960   3.7416   3.8457   3.8478   4.2989
     4.3075   4.4516   6.2219   6.2896   6.4445   6.5640   6.6601   6.9483
     7.3051   7.5417

          k = 0.5081 0.0000-0.2971 ( 36452 PWs)   bands (ev):

   -44.1447 -44.1447 -22.2544 -22.2544 -22.2039 -22.2039 -22.0778 -22.0778
    -7.6115  -7.6115  -6.8295  -6.8295  -5.6502  -5.6502  -4.7063  -4.7063
    -4.5524  -4.5524   0.2720   0.2720   0.9688   0.9688   0.9951   0.9951
     1.4251   1.4251   2.0590   2.0590   2.6497   2.6497   3.1870   3.1870
     3.3989   3.3989   3.5844   3.5844   3.7845   3.7845   3.8915   3.8915
     4.3535   4.3535   6.4847   6.4847   6.5350   6.5350   6.9021   6.9021
     7.2333   7.2333

          k = 0.7622 0.0645 0.0000 ( 36505 PWs)   bands (ev):

   -44.1438 -44.1438 -22.2497 -22.2497 -22.2268 -22.2268 -22.0752 -22.0751
    -7.1478  -6.9267  -6.7622  -6.6243  -5.7275  -5.5051  -5.1472  -5.1457
    -4.4956  -4.4806  -0.1869   0.0203   0.2533   0.9177   0.9614   1.3098
     1.4568   1.5606   1.9735   2.1959   2.2453   2.2639   2.3883   2.7853
     2.9707   3.2907   3.3672   3.4766   3.5760   3.6779   3.6999   3.7489
     3.8373   4.6059   6.1359   6.4185   6.5628   6.9294   6.9747   6.9874
     7.3921   7.6724

          k = 0.7622 0.0645 0.1485 ( 36509 PWs)   bands (ev):

   -44.1438 -44.1438 -22.2497 -22.2497 -22.2268 -22.2268 -22.0752 -22.0751
    -7.1253  -6.9788  -6.7238  -6.6360  -5.6919  -5.5333  -5.1524  -5.1506
    -4.4914  -4.4811  -0.1543   0.1449   0.1559   0.7856   0.9802   1.2598
     1.4691   1.5976   1.9742   1.9970   2.1113   2.5827   2.7021   2.8848
     2.9276   3.0410   3.3133   3.3631   3.5570   3.5961   3.7104   3.9656
     3.9770   4.4586   5.9936   6.4093   6.7558   6.8816   7.0062   7.1056
     7.1470   7.6837

          k = 0.7622 0.0645-0.2971 ( 36472 PWs)   bands (ev):

   -44.1438 -44.1438 -22.2497 -22.2497 -22.2268 -22.2268 -22.0752 -22.0752
    -7.0627  -7.0627  -6.6706  -6.6706  -5.6091  -5.6091  -5.1562  -5.1562
    -4.4844  -4.4844  -0.0286  -0.0286   0.4512   0.4512   1.0991   1.0991
     1.5516   1.5516   1.9449   1.9449   2.4273   2.4273   2.8485   2.8485
     2.9428   2.9428   3.3234   3.3234   3.5928   3.5928   3.9645   3.9645
     4.0542   4.0542   6.3788   6.3788   6.5205   6.5205   7.0298   7.0298
     7.5787   7.5787

          k = 1.0162 0.1290 0.0000 ( 36514 PWs)   bands (ev):

   -44.1434 -44.1434 -22.2476 -22.2476 -22.2363 -22.2363 -22.0741 -22.0741
    -6.7559  -6.7349  -6.2403  -6.2290  -6.2192  -6.2146  -5.1993  -5.1988
    -4.4487  -4.4193  -0.1361  -0.1054   0.1733   0.2004   1.0031   1.0280
     1.4737   1.6500   2.2102   2.3827   2.4037   2.4187   2.7701   2.8342
     2.8596   2.8768   3.2018   3.2048   3.2925   3.3451   3.4806   3.6097
     3.9279   4.2248   6.6599   6.7455   6.7539   6.8054   7.1365   7.2073
     7.2109   7.2552

          k = 1.0162 0.1290 0.1485 ( 36524 PWs)   bands (ev):

   -44.1434 -44.1434 -22.2476 -22.2476 -22.2363 -22.2363 -22.0741 -22.0741
    -6.7511  -6.7361  -6.2726  -6.2654  -6.1863  -6.1820  -5.1976  -5.1972
    -4.4467  -4.4259  -0.2261  -0.2157   0.3689   0.3750   1.0050   1.0183
     1.4659   1.5844   2.0753   2.1786   2.3475   2.3930   2.6268   2.6968
     2.9247   3.0451   3.0991   3.1987   3.5129   3.5400   3.6233   3.7011
     4.0624   4.2522   6.2419   6.2779   6.5691   6.6523   7.2208   7.2265
     7.4434   7.4932

          k = 1.0162 0.1290-0.2971 ( 36516 PWs)   bands (ev):

   -44.1434 -44.1434 -22.2476 -22.2476 -22.2363 -22.2363 -22.0741 -22.0741
    -6.7417  -6.7417  -6.2868  -6.2868  -6.1680  -6.1680  -5.1958  -5.1958
    -4.4387  -4.4387  -0.2822  -0.2822   0.5514   0.5514   0.9761   0.9761
     1.5063   1.5063   1.9262   1.9262   2.3432   2.3432   2.7389   2.7389
     2.8580   2.8580   3.1841   3.1841   3.6333   3.6333   3.7839   3.7839
     4.3122   4.3122   5.8874   5.8874   6.5149   6.5149   7.2371   7.2371
     7.5694   7.5694

          k =-0.7622-0.3224 0.0000 ( 36511 PWs)   bands (ev):

   -44.1438 -44.1438 -22.2497 -22.2497 -22.2268 -22.2268 -22.0752 -22.0751
    -7.1343  -6.9245  -6.7693  -6.6335  -5.7264  -5.5103  -5.1499  -5.1446
    -4.5151  -4.4593  -0.2078   0.0263   0.2303   0.8971   0.9414   1.2804
     1.5033   1.6660   2.0875   2.1846   2.2142   2.2500   2.4649   2.8465
     2.9901   3.2123   3.3434   3.4673   3.4890   3.6246   3.6848   3.7147
     3.9765   4.5418   6.1422   6.4726   6.5361   6.8505   6.9971   7.0824
     7.3603   7.5844

          k =-0.7622-0.3224 0.1485 ( 36492 PWs)   bands (ev):

   -44.1438 -44.1438 -22.2497 -22.2497 -22.2268 -22.2268 -22.0752 -22.0751
    -7.1126  -6.9732  -6.7334  -6.6461  -5.6907  -5.5362  -5.1541  -5.1519
    -4.5051  -4.4661  -0.1744   0.1303   0.1585   0.8102   0.9213   1.2285
     1.5256   1.6135   2.0054   2.1223   2.1851   2.5793   2.6772   2.9171
     2.9468   3.0560   3.2342   3.3340   3.4750   3.5848   3.7631   3.8790
     4.0189   4.4735   5.9373   6.4701   6.7066   6.8771   7.0182   7.0961
     7.1997   7.6043

          k =-0.7622-0.3224-0.2971 ( 36508 PWs)   bands (ev):

   -44.1438 -44.1438 -22.2497 -22.2497 -22.2268 -22.2268 -22.0752 -22.0752
    -7.0527  -7.0527  -6.6817  -6.6817  -5.6088  -5.6088  -5.1584  -5.1584
    -4.4841  -4.4841  -0.0483  -0.0483   0.4671   0.4671   1.0563   1.0563
     1.5646   1.5646   2.0634   2.0634   2.4512   2.4512   2.8388   2.8388
     2.9941   2.9941   3.2029   3.2029   3.5932   3.5932   3.9199   3.9199
     4.1074   4.1074   6.3171   6.3171   6.5211   6.5211   7.1072   7.1072
     7.5002   7.5002

          k =-0.5081-0.2579 0.0000 ( 36480 PWs)   bands (ev):

   -44.1447 -44.1447 -22.2544 -22.2544 -22.2039 -22.2039 -22.0779 -22.0777
    -7.6928  -7.4926  -6.9102  -6.7822  -5.8911  -5.2420  -5.0068  -4.6432
    -4.5740  -4.4818   0.0516   0.4876   0.6934   0.9881   1.1734   1.4126
     1.6428   1.7455   1.8288   2.0692   2.1446   2.4166   2.5473   3.3913
     3.4478   3.5462   3.5485   3.6995   3.7037   3.7664   4.0364   4.1337
     4.3061   4.9002   5.8057   6.1745   6.2287   6.7030   6.7673   6.9560
     7.4158   7.5003

          k =-0.5081-0.2579 0.1485 ( 36485 PWs)   bands (ev):

   -44.1447 -44.1447 -22.2544 -22.2544 -22.2039 -22.2039 -22.0778 -22.0778
    -7.6693  -7.5301  -6.8835  -6.7956  -5.8283  -5.4177  -4.8678  -4.6201
    -4.6097  -4.4929   0.1069   0.4632   0.7709   0.8570   1.1622   1.3006
     1.4969   1.6423   1.9951   2.0669   2.3426   2.5189   2.8571   3.3078
     3.4502   3.5016   3.5142   3.6480   3.6691   3.7733   3.9200   4.1698
     4.2647   4.4959   6.2423   6.2695   6.3870   6.7045   6.8015   6.8422
     7.2489   7.4939

          k =-0.5081-0.2579-0.2971 ( 36478 PWs)   bands (ev):

   -44.1447 -44.1447 -22.2544 -22.2544 -22.2039 -22.2039 -22.0778 -22.0778
    -7.6061  -7.6061  -6.8334  -6.8334  -5.6552  -5.6552  -4.7178  -4.7178
    -4.5441  -4.5441   0.2734   0.2734   0.9669   0.9669   0.9853   0.9853
     1.5499   1.5499   2.0394   2.0394   2.6909   2.6909   3.1604   3.1604
     3.3729   3.3729   3.5557   3.5557   3.7042   3.7042   3.9256   3.9256
     4.2948   4.2948   6.4370   6.4370   6.6486   6.6486   6.8432   6.8432
     7.2368   7.2368

          k =-0.2541-0.1934 0.0000 ( 36410 PWs)   bands (ev):

   -44.1456 -44.1456 -22.2591 -22.2591 -22.1810 -22.1810 -22.0805 -22.0804
    -8.0594  -7.8523  -7.0618  -6.9033  -6.0651  -5.3630  -4.8003  -4.7459
    -4.6845  -3.9569   0.3379   0.8976   0.9464   1.0161   1.2881   1.5416
     1.5519   1.5815   1.8003   2.5616   2.6130   3.2011   3.3389   3.6800
     3.7273   3.7469   3.8700   3.8849   3.9165   4.1967   4.3171   4.3583
     4.3769   4.6375   5.9817   6.0232   6.2436   6.4984   6.5086   6.7452
     7.0146   7.1513

          k =-0.2541-0.1934 0.1485 ( 36427 PWs)   bands (ev):

   -44.1456 -44.1456 -22.2591 -22.2591 -22.1810 -22.1810 -22.0805 -22.0804
    -8.0347  -7.8904  -7.0289  -6.9195  -5.9993  -5.5426  -4.7652  -4.6999
    -4.5730  -4.0420   0.4041   0.8145   0.9201   1.0602   1.2110   1.2562
     1.6648   1.7293   2.1222   2.5615   2.5998   2.9447   3.4253   3.4693
     3.5326   3.7630   3.8495   3.9080   4.0177   4.1820   4.3610   4.3786
     4.6485   4.7743   5.8858   6.0274   6.1293   6.3049   6.3747   6.8019
     7.1715   7.2386

          k =-0.2541-0.1934-0.2971 ( 36422 PWs)   bands (ev):

   -44.1456 -44.1456 -22.2591 -22.2591 -22.1810 -22.1810 -22.0804 -22.0804
    -7.9689  -7.9689  -6.9664  -6.9664  -5.8104  -5.8104  -4.7317  -4.7317
    -4.2719  -4.2719   0.5879   0.5879   0.9987   0.9987   1.1555   1.1555
     1.7942   1.7942   2.4876   2.4876   2.6514   2.6514   3.2765   3.2765
     3.6922   3.6922   3.8448   3.8448   4.1416   4.1416   4.3740   4.3740
     4.9440   4.9440   5.7677   5.7677   6.1888   6.1888   6.5092   6.5092
     7.3521   7.3521

          k = 0.0000-0.1290 0.0000 ( 36417 PWs)   bands (ev):

   -44.1459 -44.1459 -22.2611 -22.2610 -22.1714 -22.1714 -22.0816 -22.0814
    -8.1860  -7.9751  -7.1278  -6.9517  -6.1202  -5.4102  -4.8037  -4.7488
    -4.7185  -3.7774   0.2498   0.7894   0.8667   1.1683   1.3140   1.5670
     1.8880   2.0152   2.2646   2.8104   2.9197   2.9869   3.2670   3.4072
     3.8042   3.9186   3.9488   4.0129   4.2868   4.3487   4.4074   4.6935
     4.7304   5.3027   5.6496   5.9252   5.9270   5.9738   6.0470   6.7534
     7.0846   7.2286

          k = 0.0000-0.1290 0.1485 ( 36419 PWs)   bands (ev):

   -44.1459 -44.1459 -22.2611 -22.2611 -22.1714 -22.1714 -22.0816 -22.0815
    -8.1609  -8.0139  -7.0913  -6.9696  -6.0553  -5.5930  -4.7936  -4.7461
    -4.5196  -3.8863   0.3277   0.8928   0.9328   0.9404   1.1349   1.8638
     1.9040   1.9933   2.0261   2.8306   2.9071   3.0429   3.3698   3.5014
     3.7904   3.9251   3.9685   4.0037   4.2686   4.3230   4.4159   4.6956
     4.7236   4.8672   5.8594   5.8989   5.9257   6.1916   6.3199   6.6029
     6.8956   7.0853

          k = 0.0000-0.1290-0.2971 ( 36464 PWs)   bands (ev):

   -44.1459 -44.1459 -22.2611 -22.2611 -22.1714 -22.1714 -22.0815 -22.0815
    -8.0939  -8.0939  -7.0215  -7.0215  -5.8661  -5.8661  -4.7698  -4.7698
    -4.1686  -4.1686   0.5605   0.5605   0.9992   0.9992   1.3503   1.3503
     1.9458   1.9458   2.5727   2.5727   2.8726   2.8726   3.6062   3.6062
     3.8652   3.8652   4.1041   4.1041   4.2243   4.2243   4.4227   4.4227
     4.7079   4.7079   5.9005   5.9005   6.2328   6.2328   6.5289   6.5289
     6.7761   6.7761

          k = 1.0162 0.0000 0.0000 ( 36499 PWs)   bands (ev):

   -44.1434 -44.1434 -22.2476 -22.2476 -22.2363 -22.2363 -22.0741 -22.0741
    -6.7559  -6.7349  -6.2401  -6.2291  -6.2193  -6.2146  -5.1993  -5.1988
    -4.4487  -4.4193  -0.1401  -0.1013   0.1711   0.2028   0.9988   1.0330
     1.4816   1.6388   2.2066   2.3934   2.4071   2.4080   2.7586   2.8438
     2.8460   2.9079   3.1807   3.2293   3.2767   3.3238   3.5341   3.5788
     3.9129   4.2396   6.6549   6.7444   6.7539   6.8149   7.1818   7.2077
     7.2126   7.2138

          k = 1.0162 0.0000 0.1485 ( 36485 PWs)   bands (ev):

   -44.1434 -44.1434 -22.2476 -22.2476 -22.2363 -22.2363 -22.0741 -22.0741
    -6.7511  -6.7361  -6.2725  -6.2654  -6.1862  -6.1821  -5.1976  -5.1972
    -4.4467  -4.4259  -0.2278  -0.2143   0.3706   0.3738   1.0039   1.0196
     1.4732   1.5769   2.0873   2.1589   2.3525   2.3900   2.6178   2.7110
     2.9263   3.0529   3.1028   3.1876   3.4980   3.5405   3.6543   3.6863
     4.0445   4.2680   6.2394   6.2856   6.5658   6.6545   7.2246   7.2251
     7.4663   7.4716

          k = 1.0162 0.0000-0.2971 ( 36514 PWs)   bands (ev):

   -44.1434 -44.1434 -22.2476 -22.2476 -22.2363 -22.2363 -22.0741 -22.0741
    -6.7417  -6.7417  -6.2868  -6.2868  -6.1680  -6.1680  -5.1958  -5.1958
    -4.4387  -4.4387  -0.2823  -0.2823   0.5518   0.5518   0.9759   0.9759
     1.5076   1.5076   1.9269   1.9269   2.3371   2.3371   2.7264   2.7264
     2.8840   2.8840   3.1736   3.1736   3.6350   3.6350   3.7831   3.7831
     4.3127   4.3127   5.8903   5.8903   6.5141   6.5141   7.2379   7.2379
     7.5704   7.5704

          k = 1.2703 0.0645 0.0000 ( 36468 PWs)   bands (ev):

   -44.1438 -44.1438 -22.2497 -22.2497 -22.2268 -22.2268 -22.0752 -22.0751
    -7.1283  -6.9236  -6.7730  -6.6369  -5.7260  -5.5125  -5.1505  -5.1447
    -4.5196  -4.4542  -0.2162   0.0291   0.2205   0.8775   0.9512   1.2701
     1.5050   1.7163   2.1740   2.1757   2.2148   2.2593   2.4194   2.8761
     2.9923   3.1929   3.3757   3.4506   3.5065   3.5869   3.6118   3.6820
     4.0721   4.5021   6.1448   6.4749   6.5597   6.7914   7.0278   7.1474
     7.3264   7.5683

          k = 1.2703 0.0645 0.1485 ( 36490 PWs)   bands (ev):

   -44.1438 -44.1438 -22.2497 -22.2497 -22.2268 -22.2268 -22.0752 -22.0751
    -7.1070  -6.9708  -6.7379  -6.6500  -5.6902  -5.5374  -5.1545  -5.1528
    -4.5082  -4.4625  -0.1826   0.1252   0.1586   0.8200   0.9027   1.2168
     1.5364   1.6284   2.0101   2.1804   2.2321   2.5885   2.6286   2.9384
     2.9464   3.0870   3.2132   3.3016   3.4833   3.5365   3.7694   3.8374
     4.0594   4.4770   5.9166   6.5012   6.6769   6.8734   6.9975   7.1577
     7.2038   7.5542

          k = 1.2703 0.0645-0.2971 ( 36480 PWs)   bands (ev):

   -44.1438 -44.1438 -22.2497 -22.2497 -22.2268 -22.2268 -22.0752 -22.0752
    -7.0483  -7.0483  -6.6865  -6.6865  -5.6087  -5.6087  -5.1592  -5.1592
    -4.4839  -4.4839  -0.0561  -0.0561   0.4732   0.4732   1.0423   1.0423
     1.5708   1.5708   2.1001   2.1001   2.4783   2.4783   2.8365   2.8365
     3.0134   3.0134   3.1532   3.1532   3.5867   3.5867   3.8877   3.8877
     4.1422   4.1422   6.2953   6.2953   6.5198   6.5198   7.1459   7.1459
     7.4522   7.4525

          k =-0.5081-0.3869 0.0000 ( 36463 PWs)   bands (ev):

   -44.1447 -44.1447 -22.2544 -22.2544 -22.2039 -22.2039 -22.0779 -22.0777
    -7.6875  -7.4916  -6.9105  -6.7844  -5.8986  -5.2432  -5.0128  -4.6493
    -4.5649  -4.4830   0.0411   0.5013   0.6901   0.9722   1.1828   1.5387
     1.6532   1.7663   1.8632   2.0484   2.1685   2.4169   2.5356   3.2893
     3.4780   3.5310   3.5565   3.6017   3.7269   3.7338   3.9831   4.1321
     4.2934   4.9160   5.7954   6.0929   6.2951   6.8073   6.8699   6.9003
     7.3676   7.4683

          k =-0.5081-0.3869 0.1485 ( 36477 PWs)   bands (ev):

   -44.1447 -44.1447 -22.2544 -22.2544 -22.2039 -22.2039 -22.0778 -22.0778
    -7.6643  -7.5280  -6.8851  -6.7982  -5.8344  -5.4194  -4.8758  -4.6177
    -4.6124  -4.4889   0.0994   0.4778   0.7667   0.8409   1.1610   1.3214
     1.6178   1.7156   1.9658   2.0399   2.3851   2.5207   2.8535   3.2246
     3.4455   3.4842   3.5121   3.5707   3.6757   3.7477   3.9480   4.1202
     4.2201   4.5193   6.1926   6.3049   6.3629   6.7498   6.8078   6.9399
     7.1877   7.4801

          k =-0.5081-0.3869-0.2971 ( 36492 PWs)   bands (ev):

   -44.1447 -44.1447 -22.2544 -22.2544 -22.2039 -22.2039 -22.0778 -22.0778
    -7.6023  -7.6023  -6.8363  -6.8363  -5.6586  -5.6586  -4.7253  -4.7253
    -4.5388  -4.5388   0.2742   0.2742   0.9635   0.9635   0.9821   0.9821
     1.6606   1.6606   2.0075   2.0075   2.7362   2.7362   3.0931   3.0931
     3.3655   3.3655   3.5239   3.5239   3.6817   3.6817   3.9407   3.9407
     4.2610   4.2610   6.4054   6.4054   6.6962   6.6962   6.8222   6.8222
     7.2603   7.2603

          k =-0.2541-0.3224 0.0000 ( 36485 PWs)   bands (ev):

   -44.1456 -44.1456 -22.2591 -22.2591 -22.1810 -22.1810 -22.0805 -22.0804
    -8.0542  -7.8513  -7.0570  -6.9044  -6.0817  -5.3682  -4.8224  -4.7398
    -4.6732  -3.9580   0.3630   0.9025   0.9412   1.1296   1.3341   1.5733
     1.5888   1.6290   1.8342   2.4951   2.5699   3.2103   3.4308   3.5605
     3.6137   3.6850   3.7335   3.8814   3.9558   4.1337   4.1821   4.2837
     4.3404   4.6841   6.0656   6.0736   6.3109   6.5103   6.5343   6.8200
     6.9361   7.0714

          k =-0.2541-0.3224 0.1485 ( 36445 PWs)   bands (ev):

   -44.1456 -44.1456 -22.2591 -22.2591 -22.1810 -22.1810 -22.0805 -22.0804
    -8.0300  -7.8884  -7.0261  -6.9206  -6.0135  -5.5485  -4.7829  -4.6931
    -4.5680  -4.0422   0.4291   0.8177   0.9286   1.1644   1.2612   1.3139
     1.6742   1.7528   2.1749   2.4981   2.5601   2.9563   3.4212   3.4978
     3.5604   3.5907   3.6589   3.9062   3.9502   4.1215   4.2788   4.3337
     4.6395   4.8023   5.8864   6.0480   6.1419   6.3631   6.4758   6.7789
     7.1444   7.2230

          k =-0.2541-0.3224-0.2971 ( 36442 PWs)   bands (ev):

   -44.1456 -44.1456 -22.2591 -22.2591 -22.1810 -22.1810 -22.0804 -22.0804
    -7.9652  -7.9652  -6.9664  -6.9664  -5.8199  -5.8199  -4.7366  -4.7366
    -4.2700  -4.2700   0.6082   0.6082   1.0138   1.0138   1.2476   1.2476
     1.8091   1.8091   2.4738   2.4738   2.6506   2.6506   3.2814   3.2814
     3.5632   3.5632   3.8078   3.8078   4.0818   4.0818   4.3131   4.3131
     4.9649   4.9649   5.7396   5.7396   6.2059   6.2059   6.5746   6.5746
     7.3418   7.3418

          k = 0.0000-0.2579 0.0000 ( 36445 PWs)   bands (ev):

   -44.1459 -44.1459 -22.2611 -22.2610 -22.1714 -22.1714 -22.0816 -22.0814
    -8.1814  -7.9742  -7.1214  -6.9526  -6.1383  -5.4168  -4.8256  -4.7428
    -4.7072  -3.7784   0.2811   0.7980   0.9751   1.2207   1.3404   1.6359
     1.8876   2.0140   2.2597   2.8279   2.9275   2.9988   3.2514   3.5143
     3.5772   3.6734   3.8909   3.9596   4.1589   4.2781   4.3494   4.6625
     4.7277   5.2684   5.6964   5.9897   6.0103   6.0593   6.0663   6.7791
     7.0846   7.1052

          k = 0.0000-0.2579 0.1485 ( 36452 PWs)   bands (ev):

   -44.1459 -44.1459 -22.2611 -22.2611 -22.1714 -22.1714 -22.0816 -22.0815
    -8.1566  -8.0121  -7.0869  -6.9701  -6.0711  -5.6002  -4.8101  -4.7381
    -4.5170  -3.8866   0.3593   0.9389   0.9586   1.0245   1.1917   1.8749
     1.9035   1.9924   2.0694   2.8467   2.9163   3.0517   3.3351   3.5217
     3.6710   3.6891   3.9091   3.9423   4.1981   4.2584   4.2950   4.6771
     4.7203   4.8620   5.9060   5.9584   5.9983   6.2068   6.3402   6.6163
     6.8984   7.0021

          k = 0.0000-0.2579-0.2971 ( 36454 PWs)   bands (ev):

   -44.1459 -44.1459 -22.2611 -22.2611 -22.1714 -22.1714 -22.0815 -22.0815
    -8.0906  -8.0906  -7.0204  -7.0204  -5.8770  -5.8770  -4.7739  -4.7739
    -4.1675  -4.1675   0.5956   0.5956   1.0797   1.0797   1.3643   1.3643
     1.9452   1.9452   2.6032   2.6032   2.8852   2.8852   3.5033   3.5033
     3.7802   3.7802   4.0829   4.0829   4.1120   4.1120   4.3714   4.3714
     4.7012   4.7012   5.9483   5.9483   6.2657   6.2657   6.5373   6.5373
     6.7405   6.7405

          k = 1.5243 0.0000 0.0000 ( 36439 PWs)   bands (ev):

   -44.1447 -44.1447 -22.2544 -22.2544 -22.2039 -22.2039 -22.0779 -22.0777
    -7.6852  -7.4912  -6.9109  -6.7851  -5.9018  -5.2437  -5.0152  -4.6513
    -4.5617  -4.4835   0.0368   0.5070   0.6877   0.9677   1.1867   1.6077
     1.6741   1.7394   1.8779   2.0378   2.2052   2.3925   2.5298   3.2531
     3.4904   3.4949   3.5610   3.5946   3.7058   3.7641   3.9169   4.1579
     4.2876   4.9216   5.7917   6.0569   6.3265   6.8340   6.8552   6.9637
     7.3301   7.5132

          k = 1.5243 0.0000 0.1485 ( 36476 PWs)   bands (ev):

   -44.1447 -44.1447 -22.2544 -22.2544 -22.2039 -22.2039 -22.0778 -22.0778
    -7.6622  -7.5271  -6.8859  -6.7991  -5.8369  -5.4201  -4.8791  -4.6157
    -4.6146  -4.4873   0.0964   0.4837   0.7656   0.8335   1.1618   1.3289
     1.7114   1.7180   1.9537   2.0154   2.4461   2.4757   2.8502   3.1954
     3.4053   3.4881   3.5187   3.5615   3.6864   3.7322   3.9307   4.1354
     4.1888   4.5287   6.1671   6.3213   6.3572   6.7215   6.8442   7.0123
     7.1438   7.5001

          k = 1.5243 0.0000-0.2971 ( 36508 PWs)   bands (ev):

   -44.1447 -44.1447 -22.2544 -22.2544 -22.2039 -22.2039 -22.0778 -22.0778
    -7.6007  -7.6007  -6.8375  -6.8375  -5.6600  -5.6600  -4.7284  -4.7284
    -4.5367  -4.5367   0.2745   0.2745   0.9621   0.9621   0.9811   0.9811
     1.7200   1.7200   1.9821   1.9821   2.7644   2.7644   3.0459   3.0459
     3.3667   3.3667   3.5129   3.5129   3.6759   3.6759   3.9428   3.9428
     4.2507   4.2507   6.3926   6.3926   6.6982   6.6982   6.8267   6.8267
     7.2794   7.2794

          k =-0.2541-0.4514 0.0000 ( 36444 PWs)   bands (ev):

   -44.1456 -44.1456 -22.2591 -22.2591 -22.1810 -22.1810 -22.0805 -22.0804
    -8.0505  -7.8506  -7.0542  -6.9045  -6.0937  -5.3719  -4.8361  -4.7344
    -4.6682  -3.9588   0.3753   0.9144   0.9294   1.2531   1.3371   1.5851
     1.6153   1.7036   1.8699   2.4237   2.4988   3.2492   3.4099   3.4679
     3.4974   3.6756   3.7987   3.8836   3.9402   4.0475   4.1004   4.2265
     4.3304   4.7137   6.0878   6.1513   6.3302   6.5371   6.5539   6.8481
     6.8662   7.0362

          k =-0.2541-0.4514 0.1485 ( 36461 PWs)   bands (ev):

   -44.1456 -44.1456 -22.2591 -22.2591 -22.1810 -22.1810 -22.0805 -22.0804
    -8.0265  -7.8870  -7.0245  -6.9209  -6.0237  -5.5526  -4.7938  -4.6895
    -4.5648  -4.0423   0.4414   0.8208   0.9319   1.2303   1.3209   1.3714
     1.6856   1.7806   2.2293   2.4295   2.4842   2.9831   3.3565   3.4063
     3.5262   3.5407   3.7450   3.8940   3.9191   3.9888   4.2500   4.3094
     4.6370   4.8201   5.8867   6.0539   6.1659   6.3781   6.5429   6.7443
     7.1459   7.2103

          k =-0.2541-0.4514-0.2971 ( 36490 PWs)   bands (ev):

   -44.1456 -44.1456 -22.2591 -22.2591 -22.1810 -22.1810 -22.0804 -22.0804
    -7.9626  -7.9626  -6.9664  -6.9664  -5.8265  -5.8265  -4.7402  -4.7402
    -4.2685  -4.2685   0.6184   0.6184   1.0207   1.0207   1.3364   1.3364
     1.8259   1.8259   2.4390   2.4390   2.6530   2.6530   3.2645   3.2645
     3.4453   3.4453   3.8693   3.8693   4.0007   4.0007   4.2820   4.2820
     4.9790   4.9790   5.7229   5.7229   6.2010   6.2010   6.6174   6.6174
     7.3387   7.3387

          k = 0.0000-0.3869 0.0000 ( 36477 PWs)   bands (ev):

   -44.1459 -44.1459 -22.2611 -22.2611 -22.1714 -22.1714 -22.0816 -22.0814
    -8.1767  -7.9733  -7.1156  -6.9525  -6.1568  -5.4232  -4.8445  -4.7300
    -4.7058  -3.7793   0.3026   0.8078   1.1212   1.2833   1.3649   1.7105
     1.8871   2.0129   2.2564   2.8468   2.9349   3.0225   3.1700   3.2705
     3.4914   3.6719   3.8627   3.9679   4.0209   4.1039   4.3499   4.6316
     4.7251   5.2466   5.7432   6.0635   6.0692   6.0858   6.1167   6.7618
     7.0114   7.0845

          k = 0.0000-0.3869 0.1485 ( 36452 PWs)   bands (ev):

   -44.1459 -44.1459 -22.2611 -22.2611 -22.1714 -22.1714 -22.0816 -22.0815
    -8.1523  -8.0103  -7.0829  -6.9700  -6.0872  -5.6074  -4.8237  -4.7325
    -4.5147  -3.8868   0.3805   0.9558   0.9859   1.1729   1.2650   1.8876
     1.9031   1.9914   2.1164   2.8638   2.9253   3.0323   3.2083   3.3355
     3.5038   3.7677   3.9155   3.9330   4.0706   4.1344   4.2471   4.6598
     4.7172   4.8610   5.9583   6.0075   6.0388   6.2224   6.3518   6.5971
     6.9013   6.9336

          k = 0.0000-0.3869-0.2971 ( 36454 PWs)   bands (ev):

   -44.1459 -44.1459 -22.2611 -22.2611 -22.1714 -22.1714 -22.0815 -22.0815
    -8.0872  -8.0872  -7.0193  -7.0193  -5.8880  -5.8880  -4.7780  -4.7780
    -4.1663  -4.1663   0.6186   0.6186   1.1923   1.1923   1.3822   1.3822
     1.9445   1.9445   2.6331   2.6331   2.8982   2.8982   3.2527   3.2527
     3.8325   3.8325   4.0172   4.0172   4.0610   4.0610   4.3246   4.3246
     4.6949   4.6949   5.9708   5.9708   6.2973   6.2973   6.5461   6.5461
     6.6951   6.6951

          k =-2.0325 0.0000 0.0000 ( 36452 PWs)   bands (ev):

   -44.1459 -44.1459 -22.2611 -22.2611 -22.1714 -22.1714 -22.0816 -22.0814
    -8.1748  -7.9729  -7.1134  -6.9521  -6.1647  -5.4259  -4.8516  -4.7205
    -4.7101  -3.7797   0.3087   0.8123   1.2499   1.2514   1.3744   1.7550
     1.8869   2.0125   2.2555   2.8552   2.9377   3.0365   3.0760   3.1522
     3.4565   3.8372   3.8509   3.8838   3.9726   4.0094   4.3501   4.6189
     4.7241   5.2394   5.7624   6.0803   6.0940   6.1110   6.1347   6.7283
     6.9901   7.0844

          k =-2.0325 0.0000 0.1485 ( 36456 PWs)   bands (ev):

   -44.1459 -44.1459 -22.2611 -22.2611 -22.1714 -22.1714 -22.0816 -22.0815
    -8.1505  -8.0095  -7.0814  -6.9697  -6.0939  -5.6103  -4.8289  -4.7306
    -4.5139  -3.8869   0.3863   0.9634   0.9971   1.2619   1.2876   1.8935
     1.9029   1.9911   2.1404   2.8714   2.9289   2.9909   3.0923   3.2923
     3.4694   3.8776   3.9043   3.9496   3.9923   4.0297   4.2421   4.6529
     4.7160   4.8609   5.9810   6.0319   6.0467   6.2289   6.3545   6.5748
     6.9024   6.9132

          k =-2.0325 0.0000-0.2971 ( 36460 PWs)   bands (ev):

   -44.1459 -44.1459 -22.2611 -22.2611 -22.1714 -22.1714 -22.0815 -22.0815
    -8.0858  -8.0858  -7.0188  -7.0188  -5.8925  -5.8925  -4.7798  -4.7798
    -4.1658  -4.1658   0.6252   0.6252   1.2492   1.2492   1.3927   1.3927
     1.9443   1.9443   2.6439   2.6439   2.9037   2.9037   3.1355   3.1355
     3.8959   3.8959   3.9457   3.9457   4.0518   4.0518   4.3080   4.3080
     4.6924   4.6924   5.9755   5.9755   6.3095   6.3095   6.5498   6.5498
     6.6747   6.6747

     the Fermi energy is     5.6053 ev

!    total energy              =   -4240.94048167 Ry

     total all-electron energy =   -150287.634176 Ry
     estimated scf accuracy    <          2.1E-12 Ry
     smearing contrib. (-TS)   =       0.00000275 Ry
     internal energy E=F+TS    =   -4240.94048442 Ry

     The total energy is F=E-TS. E is the sum of the following terms:
     one-electron contribution =    -168.32989445 Ry
     hartree contribution      =     117.62192434 Ry
     xc contribution           =    -201.59311104 Ry
     ewald contribution        =    -221.10319497 Ry
     one-center paw contrib.   =   -3767.53620829 Ry

     convergence has been achieved in  18 iterations

     Forces acting on atoms (cartesian axes, Ry/au):

     atom    1 type  1   force =     0.00000000    0.01496029    0.00000000
     atom    2 type  1   force =     0.00000000   -0.01496029    0.00000000
     atom    3 type  2   force =     0.00000000   -0.00012881    0.00000000
     atom    4 type  2   force =     0.00000000    0.00012881    0.00000000
     atom    5 type  2   force =    -0.00000000   -0.00345563   -0.00195053
     atom    6 type  2   force =    -0.00000000    0.00345563    0.00195053
     atom    7 type  2   force =     0.00000000   -0.00345563    0.00195053
     atom    8 type  2   force =     0.00000000    0.00345563   -0.00195053
     atom    9 type  2   force =     0.00000000   -0.02637687   -0.02985947
     atom   10 type  2   force =     0.00000000    0.02637687    0.02985947
     atom   11 type  2   force =     0.00000000   -0.02637687    0.02985947
     atom   12 type  2   force =     0.00000000    0.02637687   -0.02985947

     Total force =     0.082825     Total SCF correction =     0.000002


     Computing stress (Cartesian axis) and pressure

          total   stress  (Ry/bohr**3)                   (kbar)     P=        7.01
   0.00005169   0.00000000   0.00000000            7.60        0.00        0.00
   0.00000000   0.00002789   0.00000000            0.00        4.10        0.00
   0.00000000   0.00000000   0.00006343            0.00        0.00        9.33

 
     init_run     :     36.16s CPU     36.93s WALL (       1 calls)
     electrons    :   1739.04s CPU   1756.68s WALL (       1 calls)
     forces       :      7.08s CPU      7.31s WALL (       1 calls)
     stress       :     49.49s CPU     50.15s WALL (       1 calls)

     Called by init_run:
     wfcinit      :     31.27s CPU     31.55s WALL (       1 calls)
     potinit      :      1.54s CPU      1.59s WALL (       1 calls)
     hinit0       :      1.64s CPU      1.78s WALL (       1 calls)

     Called by electrons:
     c_bands      :   1409.41s CPU   1416.72s WALL (      19 calls)
     sum_band     :    295.63s CPU    301.59s WALL (      19 calls)
     v_of_rho     :      8.52s CPU      9.13s WALL (      19 calls)
     newd         :     18.27s CPU     22.25s WALL (      19 calls)
     PAW_pot      :      6.83s CPU      6.83s WALL (      19 calls)
     mix_rho      :      1.50s CPU      1.54s WALL (      19 calls)

     Called by c_bands:
     init_us_2    :     14.56s CPU     14.63s WALL (    2583 calls)
     cegterg      :   1327.79s CPU   1334.34s WALL (    1197 calls)

     Called by *egterg:
     cdiaghg      :     27.73s CPU     27.84s WALL (    7886 calls)
     h_psi        :   1151.93s CPU   1158.23s WALL (    8012 calls)
     s_psi        :     51.75s CPU     51.82s WALL (    8012 calls)
     g_psi        :      2.22s CPU      2.24s WALL (    6752 calls)

     Called by h_psi:
     h_psi:calbec :     43.60s CPU     43.70s WALL (    8012 calls)
     vloc_psi     :   1052.64s CPU   1058.66s WALL (    8012 calls)
     add_vuspsi   :     51.56s CPU     51.65s WALL (    8012 calls)

     General routines
     calbec       :     57.93s CPU     58.08s WALL (    9524 calls)
     fft          :      7.64s CPU      7.97s WALL (     271 calls)
     ffts         :      0.20s CPU      0.20s WALL (      38 calls)
     fftw         :   1046.22s CPU   1052.04s WALL (  425316 calls)
     interpolate  :      0.63s CPU      0.63s WALL (      19 calls)
 
     Parallel routines
     fft_scatt_xy :    282.59s CPU    284.18s WALL (  425625 calls)
     fft_scatt_yz :    190.21s CPU    191.63s WALL (  425625 calls)
 
     PWSCF        :  30m32.60s CPU  30m57.40s WALL

 
   This run was terminated on:  15:17:16  19Nov2021            

=------------------------------------------------------------------------------=
   JOB DONE.
=------------------------------------------------------------------------------=
