
     Program PWSCF v.6.7MaX starts on 19Nov2021 at 14:46:17 

     This program is part of the open-source Quantum ESPRESSO suite
     for quantum simulation of materials; please cite
         "P. Giannozzi et al., J. Phys.:Condens. Matter 21 395502 (2009);
         "P. Giannozzi et al., J. Phys.:Condens. Matter 29 465901 (2017);
          URL http://www.quantum-espresso.org", 
     in publications or presentations arising from this work. More details at
     http://www.quantum-espresso.org/quote

     Parallel version (MPI), running on    10 processors

     MPI processes distributed on     1 nodes
     R & G space division:  proc/nbgrp/npool/nimage =      10
     Waiting for input...
     Reading input from standard input

     Current dimensions of program PWSCF are:
     Max number of different atomic species (ntypx) = 10
     Max number of k-points (npk) =  40000
     Max angular momentum in pseudopotentials (lmaxx) =  3
     file Zr.pbe-spn-kjpaw_psl.1.0.0.UPF: wavefunction(s)  4S 4P renormalized
     file Te.pbe-n-kjpaw_psl.1.0.0.UPF: wavefunction(s)  5S 5P renormalized

     Subspace diagonalization in iterative solution of the eigenvalue problem:
     a serial algorithm will be used

     Message from routine setup:
     using ibrav=0 with symmetry is DISCOURAGED, use correct ibrav instead
 
     Parallelization info
     --------------------
     sticks:   dense  smooth     PW     G-vecs:    dense   smooth      PW
     Min         734     293     87               115340    29174    4753
     Max         735     295     88               115345    29176    4760
     Sum        7345    2937    873              1153415   291749   47557
 


     bravais-lattice index     =            0
     lattice parameter (alat)  =      15.5510  a.u.
     unit-cell volume          =    3018.5011 (a.u.)^3
     number of atoms/cell      =           12
     number of atomic types    =            2
     number of electrons       =        84.00
     number of Kohn-Sham states=           50
     kinetic-energy cutoff     =      80.0000  Ry
     charge density cutoff     =     800.0000  Ry
     scf convergence threshold =      1.0E-10
     mixing beta               =       0.7000
     number of iterations used =            8  plain     mixing
     Exchange-correlation= SLA  PW   PBX  PBC
                           (   1   4   3   4   0   0   0)

     celldm(1)=  15.551040  celldm(2)=   0.000000  celldm(3)=   0.000000
     celldm(4)=   0.000000  celldm(5)=   0.000000  celldm(6)=   0.000000

     crystal axes: (cart. coord. in units of alat)
               a(1) = (   0.246007  -0.969268   0.000000 )  
               a(2) = (   0.246007   0.969268   0.000000 )  
               a(3) = (   0.000000   0.000000   1.683031 )  

     reciprocal axes: (cart. coord. in units 2 pi/alat)
               b(1) = (  2.032465 -0.515853  0.000000 )  
               b(2) = (  2.032465  0.515853  0.000000 )  
               b(3) = (  0.000000  0.000000  0.594166 )  


     PseudoPot. # 1 for Zr read from file:
     pseudo/Zr.pbe-spn-kjpaw_psl.1.0.0.UPF
     MD5 check sum: 02112c41713a0468aff2bb39ef194e36
     Pseudo is Projector augmented-wave + core cor, Zval = 12.0
     Generated using &quot;atomic&quot; code by A. Dal Corso  v.6.2.2
     Shape of augmentation charge: PSQ
     Using radial grid of 1225 points,  6 beta functions with: 
                l(1) =   0
                l(2) =   0
                l(3) =   1
                l(4) =   1
                l(5) =   2
                l(6) =   2
     Q(r) pseudized with 0 coefficients 


     PseudoPot. # 2 for Te read from file:
     pseudo/Te.pbe-n-kjpaw_psl.1.0.0.UPF
     MD5 check sum: 66247bff2bd9dbf220fbb0bf5ab56e9d
     Pseudo is Projector augmented-wave + core cor, Zval =  6.0
     Generated using &quot;atomic&quot; code by A. Dal Corso  v.6.3
     Shape of augmentation charge: PSQ
     Using radial grid of 1245 points,  6 beta functions with: 
                l(1) =   0
                l(2) =   0
                l(3) =   1
                l(4) =   1
                l(5) =   2
                l(6) =   2
     Q(r) pseudized with 0 coefficients 


     atomic species   valence    mass     pseudopotential
        Zr            12.00    91.22000     Zr( 1.00)
        Te             6.00   127.60000     Te( 1.00)

      8 Sym. Ops., with inversion, found ( 4 have fractional translation)



   Cartesian axes

     site n.     atom                  positions (alat units)
         1           Zr  tau(   1) = (   0.0000000   0.6068369   0.4207578  )
         2           Zr  tau(   2) = (   0.2460067   0.3624312   1.2622733  )
         3           Te  tau(   3) = (   0.2460067   0.3342731   0.4207578  )
         4           Te  tau(   4) = (   0.0000000   0.6349950   1.2622733  )
         5           Te  tau(   5) = (   0.2460067   0.8092661   0.2516813  )
         6           Te  tau(   6) = (   0.0000000   0.1600020   1.4313497  )
         7           Te  tau(   7) = (   0.2460067   0.8092661   0.5898342  )
         8           Te  tau(   8) = (   0.0000000   0.1600020   1.0931969  )
         9           Te  tau(   9) = (   0.0000000   0.4127380   0.7288275  )
        10           Te  tau(  10) = (   0.2460067   0.5565301   0.9542036  )
        11           Te  tau(  11) = (   0.0000000   0.4127380   0.1126881  )
        12           Te  tau(  12) = (   0.2460067   0.5565301   1.5703430  )

     number of k points=    63  Methfessel-Paxton smearing, width (Ry)=  0.0030
                       cart. coord. in units 2pi/alat
        k(    1) = (   0.0000000   0.0000000   0.0000000), wk =   0.0078125
        k(    2) = (   0.0000000   0.0000000   0.1485415), wk =   0.0156250
        k(    3) = (   0.0000000   0.0000000  -0.2970830), wk =   0.0078125
        k(    4) = (   0.2540581   0.0644816   0.0000000), wk =   0.0312500
        k(    5) = (   0.2540581   0.0644816   0.1485415), wk =   0.0625000
        k(    6) = (   0.2540581   0.0644816  -0.2970830), wk =   0.0312500
        k(    7) = (   0.5081162   0.1289633   0.0000000), wk =   0.0312500
        k(    8) = (   0.5081162   0.1289633   0.1485415), wk =   0.0625000
        k(    9) = (   0.5081162   0.1289633  -0.2970830), wk =   0.0312500
        k(   10) = (   0.7621743   0.1934449   0.0000000), wk =   0.0312500
        k(   11) = (   0.7621743   0.1934449   0.1485415), wk =   0.0625000
        k(   12) = (   0.7621743   0.1934449  -0.2970830), wk =   0.0312500
        k(   13) = (  -1.0162324  -0.2579266   0.0000000), wk =   0.0156250
        k(   14) = (  -1.0162324  -0.2579266   0.1485415), wk =   0.0312500
        k(   15) = (  -1.0162324  -0.2579266  -0.2970830), wk =   0.0156250
        k(   16) = (   0.5081162   0.0000000   0.0000000), wk =   0.0156250
        k(   17) = (   0.5081162   0.0000000   0.1485415), wk =   0.0312500
        k(   18) = (   0.5081162   0.0000000  -0.2970830), wk =   0.0156250
        k(   19) = (   0.7621743   0.0644816   0.0000000), wk =   0.0312500
        k(   20) = (   0.7621743   0.0644816   0.1485415), wk =   0.0625000
        k(   21) = (   0.7621743   0.0644816  -0.2970830), wk =   0.0312500
        k(   22) = (   1.0162324   0.1289633   0.0000000), wk =   0.0312500
        k(   23) = (   1.0162324   0.1289633   0.1485415), wk =   0.0625000
        k(   24) = (   1.0162324   0.1289633  -0.2970830), wk =   0.0312500
        k(   25) = (  -0.7621743  -0.3224082   0.0000000), wk =   0.0312500
        k(   26) = (  -0.7621743  -0.3224082   0.1485415), wk =   0.0625000
        k(   27) = (  -0.7621743  -0.3224082  -0.2970830), wk =   0.0312500
        k(   28) = (  -0.5081162  -0.2579266   0.0000000), wk =   0.0312500
        k(   29) = (  -0.5081162  -0.2579266   0.1485415), wk =   0.0625000
        k(   30) = (  -0.5081162  -0.2579266  -0.2970830), wk =   0.0312500
        k(   31) = (  -0.2540581  -0.1934449   0.0000000), wk =   0.0312500
        k(   32) = (  -0.2540581  -0.1934449   0.1485415), wk =   0.0625000
        k(   33) = (  -0.2540581  -0.1934449  -0.2970830), wk =   0.0312500
        k(   34) = (   0.0000000  -0.1289633   0.0000000), wk =   0.0156250
        k(   35) = (   0.0000000  -0.1289633   0.1485415), wk =   0.0312500
        k(   36) = (   0.0000000  -0.1289633  -0.2970830), wk =   0.0156250
        k(   37) = (   1.0162324   0.0000000   0.0000000), wk =   0.0156250
        k(   38) = (   1.0162324   0.0000000   0.1485415), wk =   0.0312500
        k(   39) = (   1.0162324   0.0000000  -0.2970830), wk =   0.0156250
        k(   40) = (   1.2702905   0.0644816   0.0000000), wk =   0.0312500
        k(   41) = (   1.2702905   0.0644816   0.1485415), wk =   0.0625000
        k(   42) = (   1.2702905   0.0644816  -0.2970830), wk =   0.0312500
        k(   43) = (  -0.5081162  -0.3868899   0.0000000), wk =   0.0312500
        k(   44) = (  -0.5081162  -0.3868899   0.1485415), wk =   0.0625000
        k(   45) = (  -0.5081162  -0.3868899  -0.2970830), wk =   0.0312500
        k(   46) = (  -0.2540581  -0.3224082   0.0000000), wk =   0.0312500
        k(   47) = (  -0.2540581  -0.3224082   0.1485415), wk =   0.0625000
        k(   48) = (  -0.2540581  -0.3224082  -0.2970830), wk =   0.0312500
        k(   49) = (   0.0000000  -0.2579266   0.0000000), wk =   0.0156250
        k(   50) = (   0.0000000  -0.2579266   0.1485415), wk =   0.0312500
        k(   51) = (   0.0000000  -0.2579266  -0.2970830), wk =   0.0156250
        k(   52) = (   1.5243485   0.0000000   0.0000000), wk =   0.0156250
        k(   53) = (   1.5243485   0.0000000   0.1485415), wk =   0.0312500
        k(   54) = (   1.5243485   0.0000000  -0.2970830), wk =   0.0156250
        k(   55) = (  -0.2540581  -0.4513715   0.0000000), wk =   0.0312500
        k(   56) = (  -0.2540581  -0.4513715   0.1485415), wk =   0.0625000
        k(   57) = (  -0.2540581  -0.4513715  -0.2970830), wk =   0.0312500
        k(   58) = (   0.0000000  -0.3868899   0.0000000), wk =   0.0156250
        k(   59) = (   0.0000000  -0.3868899   0.1485415), wk =   0.0312500
        k(   60) = (   0.0000000  -0.3868899  -0.2970830), wk =   0.0156250
        k(   61) = (  -2.0324647   0.0000000   0.0000000), wk =   0.0078125
        k(   62) = (  -2.0324647   0.0000000   0.1485415), wk =   0.0156250
        k(   63) = (  -2.0324647   0.0000000  -0.2970830), wk =   0.0078125

     Dense  grid:  1153415 G-vectors     FFT dimensions: ( 144, 144, 240)

     Smooth grid:   291749 G-vectors     FFT dimensions: (  90,  90, 150)

     Estimated max dynamical RAM per process >     657.19 MB

     Estimated total dynamical RAM >       6.42 GB

     Initial potential from superposition of free atoms

     starting charge   83.99353, renormalised to   84.00000
     Starting wfcs are   66 randomized atomic wfcs
     Checking if some PAW data can be deallocated... 

     total cpu time spent up to now is       42.8 secs

     Self-consistent Calculation

     iteration #  1     ecut=    80.00 Ry     beta= 0.70
     Davidson diagonalization with overlap
     ethr =  1.00E-02,  avg # of iterations =  2.0

     Threshold (ethr) on eigenvalues was too large:
     Diagonalizing with lowered threshold

     Davidson diagonalization with overlap
     ethr =  4.06E-04,  avg # of iterations =  4.0

     total cpu time spent up to now is      200.9 secs

     total energy              =   -4240.73184783 Ry
     estimated scf accuracy    <       0.43172562 Ry

     iteration #  2     ecut=    80.00 Ry     beta= 0.70
     Davidson diagonalization with overlap
     ethr =  5.14E-04,  avg # of iterations =  7.8

     total cpu time spent up to now is      311.4 secs

     total energy              =   -4240.63821728 Ry
     estimated scf accuracy    <       2.07568702 Ry

     iteration #  3     ecut=    80.00 Ry     beta= 0.70
     Davidson diagonalization with overlap
     ethr =  5.14E-04,  avg # of iterations =  5.3

     total cpu time spent up to now is      405.6 secs

     total energy              =   -4240.93453947 Ry
     estimated scf accuracy    <       0.01261244 Ry

     iteration #  4     ecut=    80.00 Ry     beta= 0.70
     Davidson diagonalization with overlap
     c_bands:  1 eigenvalues not converged
     c_bands:  1 eigenvalues not converged
     c_bands:  2 eigenvalues not converged
     c_bands:  1 eigenvalues not converged
     c_bands:  1 eigenvalues not converged
     c_bands:  2 eigenvalues not converged
     c_bands:  2 eigenvalues not converged
     c_bands:  1 eigenvalues not converged
     c_bands:  1 eigenvalues not converged
     c_bands:  1 eigenvalues not converged
     c_bands:  1 eigenvalues not converged
     c_bands:  2 eigenvalues not converged
     c_bands:  2 eigenvalues not converged
     ethr =  1.50E-05,  avg # of iterations = 17.2

     total cpu time spent up to now is      583.1 secs

     total energy              =   -4240.94897796 Ry
     estimated scf accuracy    <       0.08060163 Ry

     iteration #  5     ecut=    80.00 Ry     beta= 0.70
     Davidson diagonalization with overlap
     ethr =  1.50E-05,  avg # of iterations =  7.4

     total cpu time spent up to now is      675.4 secs

     total energy              =   -4240.95087405 Ry
     estimated scf accuracy    <       0.01621662 Ry

     iteration #  6     ecut=    80.00 Ry     beta= 0.70
     Davidson diagonalization with overlap
     ethr =  1.50E-05,  avg # of iterations =  3.2

     total cpu time spent up to now is      752.1 secs

     total energy              =   -4240.95212344 Ry
     estimated scf accuracy    <       0.00169660 Ry

     iteration #  7     ecut=    80.00 Ry     beta= 0.70
     Davidson diagonalization with overlap
     c_bands:  1 eigenvalues not converged
     c_bands:  2 eigenvalues not converged
     c_bands:  1 eigenvalues not converged
     ethr =  2.02E-06,  avg # of iterations = 13.2

     total cpu time spent up to now is      881.5 secs

     total energy              =   -4240.95303068 Ry
     estimated scf accuracy    <       0.00200176 Ry

     iteration #  8     ecut=    80.00 Ry     beta= 0.70
     Davidson diagonalization with overlap
     ethr =  2.02E-06,  avg # of iterations =  2.3

     total cpu time spent up to now is      951.2 secs

     total energy              =   -4240.95307495 Ry
     estimated scf accuracy    <       0.00032120 Ry

     iteration #  9     ecut=    80.00 Ry     beta= 0.70
     Davidson diagonalization with overlap
     ethr =  3.82E-07,  avg # of iterations =  6.3

     total cpu time spent up to now is     1040.5 secs

     total energy              =   -4240.95317323 Ry
     estimated scf accuracy    <       0.00002855 Ry

     iteration # 10     ecut=    80.00 Ry     beta= 0.70
     Davidson diagonalization with overlap
     ethr =  3.40E-08,  avg # of iterations =  4.8

     total cpu time spent up to now is     1120.7 secs

     total energy              =   -4240.95317704 Ry
     estimated scf accuracy    <       0.00000885 Ry

     iteration # 11     ecut=    80.00 Ry     beta= 0.70
     Davidson diagonalization with overlap
     ethr =  1.05E-08,  avg # of iterations =  5.7

     total cpu time spent up to now is     1207.8 secs

     total energy              =   -4240.95317989 Ry
     estimated scf accuracy    <       0.00000093 Ry

     iteration # 12     ecut=    80.00 Ry     beta= 0.70
     Davidson diagonalization with overlap
     ethr =  1.11E-09,  avg # of iterations =  4.4

     total cpu time spent up to now is     1284.7 secs

     total energy              =   -4240.95318008 Ry
     estimated scf accuracy    <       0.00000003 Ry

     iteration # 13     ecut=    80.00 Ry     beta= 0.70
     Davidson diagonalization with overlap
     ethr =  3.64E-11,  avg # of iterations =  9.2

     total cpu time spent up to now is     1410.0 secs

     total energy              =   -4240.95318013 Ry
     estimated scf accuracy    <       0.00000006 Ry

     iteration # 14     ecut=    80.00 Ry     beta= 0.70
     Davidson diagonalization with overlap
     ethr =  3.64E-11,  avg # of iterations =  2.4

     total cpu time spent up to now is     1480.4 secs

     total energy              =   -4240.95318012 Ry
     estimated scf accuracy    <       0.00000001 Ry

     iteration # 15     ecut=    80.00 Ry     beta= 0.70
     Davidson diagonalization with overlap
     ethr =  1.34E-11,  avg # of iterations =  6.2

     total cpu time spent up to now is     1566.7 secs

     total energy              =   -4240.95318013 Ry
     estimated scf accuracy    <          2.9E-09 Ry

     iteration # 16     ecut=    80.00 Ry     beta= 0.70
     Davidson diagonalization with overlap
     ethr =  3.45E-12,  avg # of iterations =  2.5

     total cpu time spent up to now is     1633.4 secs

     total energy              =   -4240.95318013 Ry
     estimated scf accuracy    <          1.3E-09 Ry

     iteration # 17     ecut=    80.00 Ry     beta= 0.70
     Davidson diagonalization with overlap
     ethr =  1.60E-12,  avg # of iterations =  4.9

     total cpu time spent up to now is     1713.8 secs

     End of self-consistent calculation

          k = 0.0000 0.0000 0.0000 ( 36359 PWs)   bands (ev):

   -44.1354 -44.1354 -22.2648 -22.2648 -22.1699 -22.1699 -22.0637 -22.0636
    -7.8021  -7.3826  -7.1339  -6.8411  -6.3603  -5.3997  -4.9738  -4.8525
    -4.8007  -3.8440   0.3654   0.7490   0.7531   1.1081   1.4854   1.5242
     2.3242   2.3630   2.6848   2.7173   2.9611   3.0127   3.2184   3.4378
     3.6659   3.7580   3.9434   4.0630   4.2195   4.3345   4.3401   4.6624
     4.8995   5.5137   5.6292   5.7843   5.8377   5.9646   6.2124   6.8335
     6.9709   7.2725

          k = 0.0000 0.0000 0.1485 ( 36415 PWs)   bands (ev):

   -44.1354 -44.1354 -22.2648 -22.2648 -22.1699 -22.1699 -22.0637 -22.0636
    -7.7657  -7.5026  -7.0268  -6.8572  -6.2783  -5.6777  -4.8566  -4.8099
    -4.6661  -3.9605   0.4268   0.7892   0.9021   1.0213   1.0696   1.9343
     2.0738   2.3528   2.5589   2.8249   2.9481   3.1221   3.3806   3.3957
     3.6904   3.8264   3.9278   4.0627   4.1604   4.3524   4.3587   4.6670
     4.8006   5.0085   5.7902   5.9659   5.9741   5.9953   6.5575   6.6301
     6.7950   7.2126

          k = 0.0000 0.0000-0.2971 ( 36410 PWs)   bands (ev):

   -44.1354 -44.1354 -22.2648 -22.2648 -22.1699 -22.1699 -22.0636 -22.0636
    -7.6602  -7.6602  -6.9131  -6.9131  -6.0339  -6.0339  -4.8321  -4.8321
    -4.2666  -4.2666   0.6367   0.6367   0.9114   0.9114   1.3724   1.3724
     2.4351   2.4351   2.6547   2.6547   2.9057   2.9057   3.4725   3.4725
     3.8800   3.8800   3.9960   3.9960   4.3457   4.3457   4.3930   4.3930
     4.6984   4.6984   5.9456   5.9456   6.2224   6.2224   6.4069   6.4069
     7.0316   7.0316

          k = 0.2541 0.0645 0.0000 ( 36396 PWs)   bands (ev):

   -44.1350 -44.1350 -22.2628 -22.2628 -22.1797 -22.1797 -22.0625 -22.0624
    -7.6853  -7.2720  -7.0611  -6.7938  -6.2985  -5.3562  -4.9837  -4.8100
    -4.7573  -3.9929   0.4518   0.8778   0.8833   1.2258   1.3245   1.3846
     1.8559   1.8716   2.0853   2.5591   2.5866   3.1300   3.3426   3.7135
     3.7382   3.7623   3.7841   3.8113   4.0178   4.2480   4.2694   4.2755
     4.4858   4.5997   5.7910   5.9794   6.2322   6.5717   6.6055   6.7863
     7.0080   7.1655

          k = 0.2541 0.0645 0.1485 ( 36423 PWs)   bands (ev):

   -44.1350 -44.1350 -22.2628 -22.2628 -22.1797 -22.1797 -22.0625 -22.0624
    -7.6497  -7.3921  -6.9596  -6.8083  -6.2136  -5.6237  -4.8328  -4.7684
    -4.6802  -4.0860   0.5010   0.9200   0.9504   0.9686   1.1759   1.4807
     1.7974   2.1753   2.2916   2.5404   2.5692   2.9445   3.3197   3.3374
     3.5818   3.7510   3.9213   3.9273   4.0228   4.1387   4.3019   4.3277
     4.6820   4.8950   5.8324   5.9060   6.1817   6.2664   6.4330   6.7252
     7.2310   7.3049

          k = 0.2541 0.0645-0.2971 ( 36436 PWs)   bands (ev):

   -44.1350 -44.1350 -22.2628 -22.2628 -22.1797 -22.1797 -22.0625 -22.0625
    -7.5465  -7.5465  -6.8579  -6.8579  -5.9691  -5.9691  -4.7959  -4.7959
    -4.3395  -4.3395   0.6686   0.6686   1.0180   1.0180   1.1960   1.1960
     2.1972   2.1972   2.4758   2.4758   2.6740   2.6740   3.1681   3.1681
     3.6226   3.6226   3.9237   3.9237   4.0933   4.0933   4.3324   4.3324
     5.0623   5.0623   5.7711   5.7711   6.1321   6.1321   6.4469   6.4469
     7.4180   7.4180

          k = 0.5081 0.1290 0.0000 ( 36499 PWs)   bands (ev):

   -44.1341 -44.1341 -22.2581 -22.2581 -22.2032 -22.2032 -22.0597 -22.0596
    -7.3525  -6.9510  -6.8893  -6.6679  -6.1066  -5.2608  -5.0735  -4.6991
    -4.6502  -4.4387   0.4821   0.5894   0.6568   1.2202   1.2253   1.4673
     1.6810   1.6939   2.0055   2.0996   2.1677   2.2411   2.3971   3.3574
     3.4366   3.5034   3.5072   3.5914   3.7712   3.8877   3.9118   4.1716
     4.4551   5.1127   5.5366   6.0273   6.0537   6.5800   6.5963   6.9272
     7.4388   7.5653

          k = 0.5081 0.1290 0.1485 ( 36476 PWs)   bands (ev):

   -44.1341 -44.1341 -22.2581 -22.2581 -22.2032 -22.2032 -22.0596 -22.0596
    -7.3196  -7.0833  -6.7881  -6.6788  -6.0193  -5.4931  -4.8977  -4.6793
    -4.6595  -4.4683   0.4574   0.6625   0.7692   1.0254   1.2544   1.3953
     1.4582   1.5685   2.0226   2.0939   2.3382   2.4738   2.7993   3.3800
     3.4195   3.4437   3.5198   3.5817   3.6955   3.7484   3.8477   4.2273
     4.3302   4.5210   6.1165   6.1618   6.2929   6.5824   6.6386   6.7928
     7.2765   7.5033

          k = 0.5081 0.1290-0.2971 ( 36466 PWs)   bands (ev):

   -44.1341 -44.1341 -22.2581 -22.2581 -22.2032 -22.2032 -22.0596 -22.0596
    -7.2250  -7.2250  -6.7147  -6.7147  -5.7904  -5.7904  -4.7551  -4.7551
    -4.5570  -4.5570   0.5494   0.5494   1.0439   1.0439   1.1296   1.1296
     1.4076   1.4076   2.0585   2.0585   2.7196   2.7196   3.1523   3.1523
     3.3949   3.3949   3.5521   3.5521   3.7064   3.7064   3.8276   3.8276
     4.3089   4.3089   6.3582   6.3582   6.5551   6.5551   6.8192   6.8192
     7.1267   7.1267

          k = 0.7622 0.1934 0.0000 ( 36521 PWs)   bands (ev):

   -44.1332 -44.1332 -22.2533 -22.2533 -22.2267 -22.2267 -22.0568 -22.0568
    -6.9079  -6.7332  -6.4581  -6.4508  -5.8072  -5.3677  -5.2278  -5.0978
    -4.5755  -4.5395   0.0140   0.0871   0.5494   1.0360   1.0621   1.2629
     1.4808   1.6025   1.9553   2.0498   2.2533   2.3885   2.4120   2.7828
     2.8670   3.2648   3.3323   3.4309   3.6140   3.6945   3.7011   3.7929
     3.8696   4.5627   5.8698   6.2915   6.3536   6.8197   6.8221   6.9202
     7.2858   7.6085

          k = 0.7622 0.1934 0.1485 ( 36503 PWs)   bands (ev):

   -44.1332 -44.1332 -22.2533 -22.2533 -22.2267 -22.2267 -22.0568 -22.0568
    -6.8860  -6.7629  -6.4623  -6.4541  -5.7413  -5.4405  -5.1987  -5.1132
    -4.5664  -4.5417   0.0386   0.2378   0.4208   0.9230   1.0349   1.2249
     1.4943   1.6323   1.8646   2.0656   2.1329   2.6273   2.6912   2.8324
     2.8828   3.0981   3.2716   3.3911   3.5254   3.6210   3.6523   3.9294
     3.9746   4.5614   5.6193   6.3274   6.6311   6.7161   6.8811   6.9641
     7.0625   7.5598

          k = 0.7622 0.1934-0.2971 ( 36522 PWs)   bands (ev):

   -44.1332 -44.1332 -22.2533 -22.2533 -22.2267 -22.2267 -22.0568 -22.0568
    -6.8285  -6.8285  -6.4613  -6.4613  -5.5917  -5.5917  -5.1522  -5.1522
    -4.5508  -4.5508   0.1872   0.1872   0.5796   0.5796   1.0813   1.0813
     1.5692   1.5692   2.0116   2.0116   2.3723   2.3723   2.8130   2.8130
     2.9920   2.9920   3.3366   3.3366   3.5919   3.5919   3.8644   3.8644
     4.1084   4.1084   6.1094   6.1094   6.4331   6.4331   6.9545   6.9545
     7.4041   7.4041

          k =-1.0162-0.2579 0.0000 ( 36506 PWs)   bands (ev):

   -44.1328 -44.1328 -22.2512 -22.2512 -22.2365 -22.2365 -22.0556 -22.0556
    -6.7071  -6.6871  -5.9446  -5.9335  -5.8836  -5.8754  -5.3704  -5.3697
    -4.5184  -4.4941   0.0041   0.0275   0.3313   0.3525   1.0122   1.0214
     1.4681   1.6710   2.2345   2.3872   2.3948   2.4030   2.7950   2.8055
     2.8144   2.8566   3.2230   3.2617   3.3163   3.4284   3.5193   3.7332
     3.7460   4.0506   6.5113   6.5352   6.5480   6.6274   7.0066   7.1006
     7.1083   7.1238

          k =-1.0162-0.2579 0.1485 ( 36506 PWs)   bands (ev):

   -44.1328 -44.1328 -22.2512 -22.2512 -22.2365 -22.2365 -22.0556 -22.0556
    -6.7034  -6.6891  -5.9640  -5.9558  -5.8630  -5.8576  -5.3664  -5.3660
    -4.5185  -4.5014  -0.0926  -0.0853   0.5542   0.5610   1.0127   1.0316
     1.4646   1.5938   1.9731   2.0683   2.3765   2.3967   2.7122   2.7126
     2.9418   3.0200   3.1159   3.1956   3.5546   3.5727   3.6713   3.7538
     4.0331   4.1294   5.9850   6.0000   6.4686   6.5439   7.0696   7.0967
     7.3068   7.3506

          k =-1.0162-0.2579-0.2971 ( 36528 PWs)   bands (ev):

   -44.1328 -44.1328 -22.2512 -22.2512 -22.2365 -22.2365 -22.0556 -22.0556
    -6.6954  -6.6954  -5.9747  -5.9747  -5.8472  -5.8472  -5.3623  -5.3623
    -4.5137  -4.5137  -0.1521  -0.1521   0.8301   0.8301   0.9458   0.9458
     1.5352   1.5352   1.7183   1.7183   2.3762   2.3762   2.7717   2.7717
     2.9134   2.9134   3.1643   3.1643   3.6292   3.6292   3.8008   3.8008
     4.4067   4.4067   5.5170   5.5170   6.4241   6.4241   7.1063   7.1063
     7.4035   7.4035

          k = 0.5081 0.0000 0.0000 ( 36503 PWs)   bands (ev):

   -44.1341 -44.1341 -22.2581 -22.2581 -22.2032 -22.2032 -22.0597 -22.0596
    -7.3569  -6.9517  -6.8905  -6.6631  -6.1029  -5.2611  -5.0706  -4.6938
    -4.6567  -4.4383   0.4880   0.5942   0.6467   1.2026   1.2154   1.4444
     1.6881   1.6887   1.9916   2.1176   2.1520   2.2247   2.3951   3.3455
     3.4624   3.4706   3.5649   3.5920   3.7774   3.8970   3.9399   4.2088
     4.4571   5.1096   5.5423   6.0057   6.0895   6.5411   6.5450   6.9628
     7.4565   7.5783

          k = 0.5081 0.0000 0.1485 ( 36453 PWs)   bands (ev):

   -44.1341 -44.1341 -22.2581 -22.2581 -22.2032 -22.2032 -22.0596 -22.0596
    -7.3240  -7.0863  -6.7860  -6.6741  -6.0168  -5.4932  -4.8929  -4.6811
    -4.6592  -4.4693   0.4588   0.6577   0.7707   1.0278   1.2391   1.4125
     1.4129   1.5515   2.0193   2.1023   2.3561   2.4329   2.7946   3.3705
     3.4419   3.4679   3.4991   3.5899   3.6898   3.8185   3.8378   4.2659
     4.3429   4.5156   6.1116   6.1720   6.3096   6.5334   6.6020   6.8245
     7.2983   7.5109

          k = 0.5081 0.0000-0.2971 ( 36452 PWs)   bands (ev):

   -44.1341 -44.1341 -22.2581 -22.2581 -22.2032 -22.2032 -22.0596 -22.0596
    -7.2290  -7.2290  -6.7105  -6.7105  -5.7897  -5.7897  -4.7511  -4.7511
    -4.5599  -4.5599   0.5464   0.5464   1.0442   1.0442   1.1418   1.1418
     1.3681   1.3681   2.0603   2.0603   2.7106   2.7106   3.1397   3.1397
     3.3950   3.3950   3.5746   3.5746   3.7323   3.7323   3.8280   3.8280
     4.3302   4.3302   6.3740   6.3740   6.5192   6.5192   6.8362   6.8362
     7.1280   7.1280

          k = 0.7622 0.0645 0.0000 ( 36505 PWs)   bands (ev):

   -44.1332 -44.1332 -22.2533 -22.2533 -22.2267 -22.2267 -22.0568 -22.0568
    -6.9167  -6.7310  -6.4598  -6.4426  -5.8069  -5.3643  -5.2285  -5.0971
    -4.5666  -4.5494   0.0096   0.0976   0.5667   1.0502   1.0677   1.2771
     1.4425   1.5635   1.9278   2.0674   2.2576   2.3552   2.3697   2.7570
     2.8549   3.3153   3.3546   3.4585   3.6263   3.6270   3.7202   3.8272
     3.8868   4.5985   5.8674   6.2926   6.3375   6.7934   6.8772   6.8784
     7.3032   7.6210

          k = 0.7622 0.0645 0.1485 ( 36509 PWs)   bands (ev):

   -44.1332 -44.1332 -22.2533 -22.2533 -22.2267 -22.2267 -22.0568 -22.0568
    -6.8942  -6.7641  -6.4597  -6.4464  -5.7418  -5.4397  -5.1973  -5.1123
    -4.5602  -4.5487   0.0419   0.2396   0.4302   0.9263   1.0490   1.2404
     1.4605   1.6322   1.8924   1.9950   2.0624   2.6459   2.6745   2.8168
     2.8657   3.1007   3.3289   3.4006   3.5226   3.6195   3.6603   3.9521
     4.0053   4.5589   5.6449   6.3072   6.6410   6.7150   6.8954   6.9622
     7.0373   7.5789

          k = 0.7622 0.0645-0.2971 ( 36472 PWs)   bands (ev):

   -44.1332 -44.1332 -22.2533 -22.2533 -22.2267 -22.2267 -22.0568 -22.0568
    -6.8343  -6.8343  -6.4546  -6.4546  -5.5925  -5.5925  -5.1506  -5.1506
    -4.5511  -4.5511   0.1940   0.1940   0.5733   0.5733   1.1046   1.1046
     1.5627   1.5627   1.9621   1.9621   2.3458   2.3458   2.8136   2.8136
     2.9798   2.9798   3.3972   3.3972   3.5890   3.5890   3.8510   3.8510
     4.1291   4.1291   6.1347   6.1347   6.4339   6.4339   6.9217   6.9217
     7.4314   7.4314

          k = 1.0162 0.1290 0.0000 ( 36514 PWs)   bands (ev):

   -44.1328 -44.1328 -22.2512 -22.2512 -22.2365 -22.2365 -22.0556 -22.0556
    -6.7072  -6.6871  -5.9443  -5.9338  -5.8836  -5.8754  -5.3704  -5.3697
    -4.5184  -4.4941  -0.0017   0.0335   0.3269   0.3571   1.0061   1.0288
     1.4739   1.6619   2.2345   2.3859   2.3860   2.4053   2.7906   2.8048
     2.8207   2.8747   3.2398   3.2448   3.3038   3.4176   3.5545   3.7133
     3.7320   4.0638   6.5016   6.5431   6.5455   6.6337   7.0237   7.1021
     7.1105   7.1124

          k = 1.0162 0.1290 0.1485 ( 36524 PWs)   bands (ev):

   -44.1328 -44.1328 -22.2512 -22.2512 -22.2365 -22.2365 -22.0556 -22.0556
    -6.7034  -6.6891  -5.9639  -5.9560  -5.8629  -5.8577  -5.3664  -5.3659
    -4.5185  -4.5014  -0.0947  -0.0835   0.5553   0.5605   1.0154   1.0294
     1.4698   1.5889   1.9849   2.0522   2.3748   2.3916   2.6692   2.7628
     2.9563   3.0317   3.1029   3.1885   3.5307   3.6094   3.6665   3.7424
     4.0146   4.1489   5.9769   6.0114   6.4655   6.5466   7.0755   7.0956
     7.3133   7.3446

          k = 1.0162 0.1290-0.2971 ( 36516 PWs)   bands (ev):

   -44.1328 -44.1328 -22.2512 -22.2512 -22.2365 -22.2365 -22.0556 -22.0556
    -6.6954  -6.6954  -5.9747  -5.9747  -5.8472  -5.8472  -5.3623  -5.3623
    -4.5137  -4.5137  -0.1523  -0.1523   0.8305   0.8305   0.9459   0.9459
     1.5360   1.5360   1.7191   1.7191   2.3670   2.3670   2.7560   2.7560
     2.9598   2.9598   3.1403   3.1403   3.6331   3.6331   3.7966   3.7966
     4.4071   4.4071   5.5193   5.5193   6.4236   6.4236   7.1080   7.1080
     7.4041   7.4041

          k =-0.7622-0.3224 0.0000 ( 36511 PWs)   bands (ev):

   -44.1332 -44.1332 -22.2533 -22.2533 -22.2267 -22.2267 -22.0568 -22.0568
    -6.8942  -6.7374  -6.4625  -6.4558  -5.8076  -5.3726  -5.2268  -5.0987
    -4.5826  -4.5310   0.0203   0.0727   0.5256   1.0049   1.0789   1.2451
     1.5031   1.6660   2.0121   2.0274   2.2811   2.4144   2.4436   2.8193
     2.8806   3.2015   3.3142   3.4360   3.5783   3.6633   3.6756   3.8284
     3.8544   4.5028   5.8731   6.2810   6.3957   6.7376   6.8664   6.9865
     7.2526   7.5938

          k =-0.7622-0.3224 0.1485 ( 36492 PWs)   bands (ev):

   -44.1332 -44.1332 -22.2533 -22.2533 -22.2267 -22.2267 -22.0568 -22.0568
    -6.8735  -6.7620  -6.4679  -6.4633  -5.7407  -5.4416  -5.2005  -5.1146
    -4.5713  -4.5358   0.0331   0.2369   0.4069   0.9116   1.0310   1.2039
     1.5324   1.6340   1.8458   2.1701   2.2191   2.6102   2.6962   2.8527
     2.9001   3.1164   3.2019   3.3765   3.4769   3.6099   3.6870   3.8830
     3.9397   4.5635   5.5851   6.3599   6.6051   6.7153   6.8537   7.0042
     7.0909   7.5235

          k =-0.7622-0.3224-0.2971 ( 36508 PWs)   bands (ev):

   -44.1332 -44.1332 -22.2533 -22.2533 -22.2267 -22.2267 -22.0568 -22.0568
    -6.8200  -6.8200  -6.4711  -6.4711  -5.5906  -5.5906  -5.1545  -5.1545
    -4.5504  -4.5504   0.1777   0.1777   0.5883   0.5883   1.0540   1.0540
     1.5773   1.5773   2.0667   2.0667   2.4295   2.4295   2.8133   2.8133
     3.0098   3.0098   3.2506   3.2506   3.5911   3.5911   3.8689   3.8689
     4.0883   4.0883   6.0765   6.0765   6.4306   6.4306   7.0090   7.0090
     7.3576   7.3576

          k =-0.5081-0.2579 0.0000 ( 36480 PWs)   bands (ev):

   -44.1341 -44.1341 -22.2581 -22.2581 -22.2032 -22.2032 -22.0597 -22.0596
    -7.3413  -6.9491  -6.8871  -6.6790  -6.1158  -5.2601  -5.0808  -4.7072
    -4.6393  -4.4398   0.4685   0.5876   0.6669   1.2315   1.2928   1.5224
     1.6708   1.7061   2.0410   2.0732   2.1802   2.2804   2.3990   3.3827
     3.3843   3.4395   3.5380   3.5459   3.7462   3.7993   3.9270   4.0958
     4.4463   5.1182   5.5250   5.9608   6.0889   6.6789   6.7172   6.8424
     7.3844   7.5363

          k =-0.5081-0.2579 0.1485 ( 36485 PWs)   bands (ev):

   -44.1341 -44.1341 -22.2581 -22.2581 -22.2032 -22.2032 -22.0596 -22.0596
    -7.3088  -7.0761  -6.7937  -6.6900  -6.0252  -5.4929  -4.9089  -4.6757
    -4.6598  -4.4658   0.4543   0.6726   0.7640   1.0201   1.2953   1.3939
     1.5292   1.6200   2.0236   2.0804   2.3220   2.5388   2.8104   3.3305
     3.4011   3.4385   3.5406   3.5516   3.6222   3.7203   3.8412   4.1486
     4.2900   4.5308   6.1022   6.1568   6.2605   6.6854   6.7232   6.7416
     7.2180   7.4875

          k =-0.5081-0.2579-0.2971 ( 36478 PWs)   bands (ev):

   -44.1341 -44.1341 -22.2581 -22.2581 -22.2032 -22.2032 -22.0596 -22.0596
    -7.2152  -7.2152  -6.7251  -6.7251  -5.7919  -5.7919  -4.7644  -4.7644
    -4.5506  -4.5506   0.5564   0.5564   1.0424   1.0424   1.1088   1.1088
     1.5030   1.5030   2.0506   2.0506   2.7453   2.7453   3.1751   3.1751
     3.3840   3.3840   3.4749   3.4749   3.6861   3.6861   3.8210   3.8210
     4.2575   4.2575   6.3211   6.3211   6.6314   6.6314   6.7834   6.7834
     7.1306   7.1306

          k =-0.2541-0.1934 0.0000 ( 36410 PWs)   bands (ev):

   -44.1350 -44.1350 -22.2628 -22.2628 -22.1797 -22.1797 -22.0625 -22.0624
    -7.6776  -7.2707  -7.0546  -6.8021  -6.3120  -5.3572  -4.9914  -4.8179
    -4.7460  -3.9939   0.4784   0.8855   0.9537   1.2537   1.3218   1.4181
     1.8788   1.8960   2.0867   2.5259   2.5754   3.1944   3.3040   3.6410
     3.6707   3.7252   3.7663   3.8711   3.8741   4.2009   4.2405   4.2645
     4.3967   4.6064   5.8451   6.0049   6.2935   6.5965   6.6266   6.7989
     6.9931   7.0851

          k =-0.2541-0.1934 0.1485 ( 36427 PWs)   bands (ev):

   -44.1350 -44.1350 -22.2628 -22.2628 -22.1797 -22.1797 -22.0625 -22.0624
    -7.6422  -7.3871  -6.9596  -6.8162  -6.2238  -5.6251  -4.8510  -4.7621
    -4.6736  -4.0859   0.5249   0.9428   0.9666   1.0326   1.2088   1.4957
     1.8030   2.1782   2.3179   2.5234   2.5528   2.9274   3.3393   3.3774
     3.5856   3.6470   3.7726   3.8968   3.9790   4.1169   4.2608   4.2766
     4.6747   4.8868   5.8186   5.9287   6.1709   6.3334   6.5034   6.7280
     7.1901   7.2944

          k =-0.2541-0.1934-0.2971 ( 36422 PWs)   bands (ev):

   -44.1350 -44.1350 -22.2628 -22.2628 -22.1797 -22.1797 -22.0625 -22.0625
    -7.5396  -7.5396  -6.8638  -6.8638  -5.9736  -5.9736  -4.8009  -4.8009
    -4.3370  -4.3370   0.6872   0.6872   1.0799   1.0799   1.2045   1.2045
     2.1984   2.1984   2.4686   2.4686   2.6724   2.6724   3.1892   3.1892
     3.5910   3.5910   3.8163   3.8163   4.0754   4.0754   4.2784   4.2784
     5.0704   5.0704   5.7323   5.7323   6.1388   6.1388   6.5255   6.5255
     7.3975   7.3975

          k = 0.0000-0.1290 0.0000 ( 36417 PWs)   bands (ev):

   -44.1354 -44.1354 -22.2648 -22.2648 -22.1699 -22.1699 -22.0637 -22.0636
    -7.7981  -7.3819  -7.1295  -6.8456  -6.3688  -5.4007  -4.9782  -4.8585
    -4.7927  -3.8446   0.3854   0.7536   0.7944   1.1167   1.4965   1.5514
     2.3257   2.3636   2.6838   2.7244   2.9607   3.0182   3.2563   3.4234
     3.6119   3.7470   3.8313   4.0135   4.2196   4.2789   4.2932   4.6622
     4.8892   5.4774   5.6534   5.7918   5.8562   6.0123   6.2618   6.8224
     6.9712   7.2431

          k = 0.0000-0.1290 0.1485 ( 36419 PWs)   bands (ev):

   -44.1354 -44.1354 -22.2648 -22.2648 -22.1699 -22.1699 -22.0637 -22.0636
    -7.7618  -7.5000  -7.0259  -6.8614  -6.2850  -5.6790  -4.8672  -4.8053
    -4.6630  -3.9606   0.4455   0.8310   0.9125   1.0244   1.0903   1.9406
     2.0905   2.3544   2.5610   2.8279   2.9482   3.1332   3.3579   3.4033
     3.6813   3.8164   3.8237   3.9905   4.1580   4.2995   4.3143   4.6667
     4.7944   4.9989   5.8014   5.9837   6.0001   6.0110   6.5805   6.6254
     6.7959   7.1966

          k = 0.0000-0.1290-0.2971 ( 36464 PWs)   bands (ev):

   -44.1354 -44.1354 -22.2648 -22.2648 -22.1699 -22.1699 -22.0636 -22.0636
    -7.6566  -7.6566  -6.9158  -6.9158  -6.0372  -6.0372  -4.8346  -4.8346
    -4.2655  -4.2655   0.6580   0.6580   0.9344   0.9344   1.3799   1.3799
     2.4370   2.4370   2.6657   2.6657   2.9072   2.9072   3.4557   3.4557
     3.8288   3.8288   3.9890   3.9890   4.2498   4.2498   4.4108   4.4108
     4.6968   4.6968   5.9539   5.9539   6.2407   6.2407   6.4092   6.4092
     7.0306   7.0306

          k = 1.0162 0.0000 0.0000 ( 36499 PWs)   bands (ev):

   -44.1328 -44.1328 -22.2512 -22.2512 -22.2365 -22.2365 -22.0556 -22.0556
    -6.7072  -6.6871  -5.9441  -5.9341  -5.8836  -5.8754  -5.3704  -5.3697
    -4.5184  -4.4941  -0.0060   0.0379   0.3236   0.3606   1.0027   1.0334
     1.4804   1.6520   2.2343   2.3784   2.3848   2.4072   2.7869   2.8034
     2.8251   2.8936   3.2506   3.2602   3.2697   3.4026   3.6025   3.6801
     3.7197   4.0758   6.4952   6.5386   6.5525   6.6396   7.0487   7.0932
     7.1035   7.1126

          k = 1.0162 0.0000 0.1485 ( 36485 PWs)   bands (ev):

   -44.1328 -44.1328 -22.2512 -22.2512 -22.2365 -22.2365 -22.0556 -22.0556
    -6.7034  -6.6891  -5.9637  -5.9561  -5.8629  -5.8577  -5.3665  -5.3659
    -4.5185  -4.5014  -0.0964  -0.0822   0.5569   0.5595   1.0200   1.0252
     1.4755   1.5834   2.0119   2.0210   2.3787   2.3812   2.6550   2.7809
     2.9781   3.0628   3.0657   3.1818   3.5209   3.6304   3.6688   3.7254
     4.0005   4.1640   5.9725   6.0190   6.4627   6.5490   7.0835   7.0924
     7.3264   7.3320

          k = 1.0162 0.0000-0.2971 ( 36514 PWs)   bands (ev):

   -44.1328 -44.1328 -22.2512 -22.2512 -22.2365 -22.2365 -22.0556 -22.0556
    -6.6954  -6.6954  -5.9747  -5.9747  -5.8472  -5.8472  -5.3623  -5.3623
    -4.5137  -4.5137  -0.1524  -0.1524   0.8309   0.8309   0.9460   0.9460
     1.5369   1.5369   1.7200   1.7200   2.3580   2.3580   2.7451   2.7451
     3.0177   3.0177   3.0999   3.0999   3.6371   3.6371   3.7923   3.7923
     4.4076   4.4076   5.5216   5.5216   6.4231   6.4231   7.1098   7.1098
     7.4046   7.4047

          k = 1.2703 0.0645 0.0000 ( 36468 PWs)   bands (ev):

   -44.1332 -44.1332 -22.2533 -22.2533 -22.2267 -22.2267 -22.0568 -22.0568
    -6.8834  -6.7415  -6.4707  -6.4541  -5.8079  -5.3761  -5.2260  -5.0993
    -4.5863  -4.5264   0.0249   0.0627   0.5090   0.9890   1.0906   1.2332
     1.5075   1.7119   2.0130   2.0684   2.3156   2.4327   2.4347   2.8468
     2.8856   3.1490   3.3378   3.4854   3.5261   3.5689   3.6830   3.7804
     3.9333   4.4495   5.8756   6.2766   6.4307   6.6785   6.9007   7.0447
     7.2168   7.5939

          k = 1.2703 0.0645 0.1485 ( 36490 PWs)   bands (ev):

   -44.1332 -44.1332 -22.2533 -22.2533 -22.2267 -22.2267 -22.0568 -22.0568
    -6.8636  -6.7621  -6.4748  -6.4671  -5.7403  -5.4424  -5.2018  -5.1155
    -4.5738  -4.5325   0.0288   0.2374   0.3965   0.9010   1.0354   1.1899
     1.5541   1.6368   1.8387   2.2460   2.2852   2.5951   2.6912   2.8624
     2.9136   3.1387   3.1615   3.3629   3.4464   3.5620   3.7551   3.8221
     3.9225   4.5638   5.5625   6.3879   6.5755   6.7141   6.8406   7.0493
     7.1052   7.4906

          k = 1.2703 0.0645-0.2971 ( 36480 PWs)   bands (ev):

   -44.1332 -44.1332 -22.2533 -22.2533 -22.2267 -22.2267 -22.0568 -22.0568
    -6.8136  -6.8136  -6.4783  -6.4783  -5.5898  -5.5898  -5.1561  -5.1561
    -4.5501  -4.5501   0.1710   0.1710   0.5942   0.5942   1.0378   1.0378
     1.5831   1.5831   2.0940   2.0940   2.4877   2.4877   2.8180   2.8180
     3.0217   3.0217   3.1821   3.1821   3.5891   3.5891   3.8602   3.8602
     4.0829   4.0829   6.0548   6.0548   6.4282   6.4282   7.0567   7.0567
     7.3156   7.3156

          k =-0.5081-0.3869 0.0000 ( 36463 PWs)   bands (ev):

   -44.1341 -44.1341 -22.2581 -22.2581 -22.2032 -22.2032 -22.0597 -22.0596
    -7.3296  -6.9473  -6.8860  -6.6893  -6.1253  -5.2592  -5.0881  -4.7122
    -4.6315  -4.4409   0.4555   0.5949   0.6618   1.2421   1.3885   1.5739
     1.6630   1.7119   2.0590   2.0801   2.2032   2.2908   2.3960   3.2676
     3.4060   3.4458   3.4670   3.6011   3.7021   3.7696   3.8419   4.0907
     4.4342   5.1198   5.5157   5.8695   6.1540   6.7572   6.7904   6.8393
     7.3048   7.5246

          k =-0.5081-0.3869 0.1485 ( 36477 PWs)   bands (ev):

   -44.1341 -44.1341 -22.2581 -22.2581 -22.2032 -22.2032 -22.0596 -22.0596
    -7.2974  -7.0687  -6.8003  -6.7010  -6.0312  -5.4927  -4.9196  -4.6733
    -4.6593  -4.4635   0.4516   0.6823   0.7552   1.0153   1.3416   1.3968
     1.6010   1.6885   2.0165   2.0712   2.3181   2.5778   2.8235   3.2239
     3.4012   3.4381   3.4779   3.5653   3.6157   3.7149   3.7990   4.1141
     4.2295   4.5387   6.0502   6.1781   6.2427   6.6427   6.7951   6.8659
     7.1424   7.4851

          k =-0.5081-0.3869-0.2971 ( 36492 PWs)   bands (ev):

   -44.1341 -44.1341 -22.2581 -22.2581 -22.2032 -22.2032 -22.0596 -22.0596
    -7.2050  -7.2050  -6.7361  -6.7361  -5.7933  -5.7933  -4.7733  -4.7733
    -4.5446  -4.5446   0.5628   0.5628   1.0402   1.0402   1.0941   1.0941
     1.6109   1.6109   2.0324   2.0324   2.7791   2.7791   3.1572   3.1572
     3.3501   3.3501   3.4366   3.4366   3.6842   3.6842   3.8087   3.8087
     4.2079   4.2079   6.2857   6.2857   6.6675   6.6675   6.7770   6.7770
     7.1496   7.1496

          k =-0.2541-0.3224 0.0000 ( 36485 PWs)   bands (ev):

   -44.1350 -44.1350 -22.2628 -22.2628 -22.1797 -22.1797 -22.0625 -22.0624
    -7.6664  -7.2688  -7.0461  -6.8128  -6.3320  -5.3585  -5.0028  -4.8226
    -4.7358  -3.9954   0.5043   0.8977   1.0758   1.3025   1.3153   1.4896
     1.9138   1.9331   2.0871   2.4511   2.5306   3.2483   3.3040   3.4663
     3.6083   3.6265   3.7471   3.8292   3.9101   4.1339   4.1528   4.2323
     4.3575   4.5947   5.9306   6.0288   6.3505   6.5842   6.7087   6.8149
     6.9212   7.0188

          k =-0.2541-0.3224 0.1485 ( 36445 PWs)   bands (ev):

   -44.1350 -44.1350 -22.2628 -22.2628 -22.1797 -22.1797 -22.0625 -22.0624
    -7.6312  -7.3800  -6.9605  -6.8269  -6.2384  -5.6271  -4.8719  -4.7570
    -4.6654  -4.0859   0.5469   0.9559   0.9915   1.1604   1.2841   1.5191
     1.8177   2.1815   2.3558   2.4557   2.5190   2.9099   3.3724   3.4071
     3.4598   3.5421   3.6794   3.8860   3.9128   4.0759   4.1763   4.2323
     4.6973   4.8601   5.8045   5.9606   6.1667   6.3585   6.6017   6.7378
     7.1463   7.2774

          k =-0.2541-0.3224-0.2971 ( 36442 PWs)   bands (ev):

   -44.1350 -44.1350 -22.2628 -22.2628 -22.1797 -22.1797 -22.0625 -22.0625
    -7.5297  -7.5297  -6.8726  -6.8726  -5.9798  -5.9798  -4.8081  -4.8081
    -4.3336  -4.3336   0.7022   0.7022   1.1915   1.1915   1.2246   1.2246
     2.2026   2.2026   2.4376   2.4376   2.6659   2.6659   3.2237   3.2237
     3.4388   3.4388   3.7942   3.7942   4.0347   4.0347   4.2127   4.2127
     5.0835   5.0835   5.6898   5.6898   6.1224   6.1224   6.6265   6.6265
     7.3720   7.3720

          k = 0.0000-0.2579 0.0000 ( 36445 PWs)   bands (ev):

   -44.1354 -44.1354 -22.2648 -22.2648 -22.1699 -22.1699 -22.0637 -22.0636
    -7.7881  -7.3802  -7.1191  -6.8558  -6.3901  -5.4031  -4.9900  -4.8648
    -4.7805  -3.8461   0.4242   0.7654   0.9064   1.1638   1.5222   1.6111
     2.3292   2.3664   2.6812   2.7422   2.9594   3.0419   3.3175   3.3597
     3.4044   3.6559   3.7202   3.9630   4.1495   4.1581   4.2197   4.6621
     4.8644   5.4259   5.7145   5.8099   5.9032   6.0854   6.3517   6.7708
     6.9716   7.1919

          k = 0.0000-0.2579 0.1485 ( 36452 PWs)   bands (ev):

   -44.1354 -44.1354 -22.2648 -22.2648 -22.1699 -22.1699 -22.0637 -22.0636
    -7.7520  -7.4936  -7.0242  -6.8711  -6.3014  -5.6820  -4.8878  -4.7989
    -4.6562  -3.9607   0.4794   0.9251   0.9466   1.0723   1.1345   1.9578
     2.1293   2.3581   2.5660   2.8360   2.9483   3.1335   3.2824   3.3478
     3.6274   3.6568   3.7921   3.9148   4.1520   4.1747   4.1954   4.6662
     4.7799   4.9874   5.8355   6.0120   6.0254   6.0596   6.5894   6.6310
     6.7980   7.1593

          k = 0.0000-0.2579-0.2971 ( 36454 PWs)   bands (ev):

   -44.1354 -44.1354 -22.2648 -22.2648 -22.1699 -22.1699 -22.0636 -22.0636
    -7.6478  -7.6478  -6.9225  -6.9225  -6.0450  -6.0450  -4.8408  -4.8408
    -4.2630  -4.2630   0.6914   0.6914   1.0210   1.0210   1.3989   1.3989
     2.4415   2.4415   2.6890   2.6890   2.9108   2.9108   3.3285   3.3285
     3.7730   3.7730   3.9719   3.9719   4.1127   4.1127   4.3966   4.3966
     4.6932   4.6932   5.9571   5.9571   6.2783   6.2783   6.4151   6.4151
     7.0146   7.0146

          k = 1.5243 0.0000 0.0000 ( 36439 PWs)   bands (ev):

   -44.1341 -44.1341 -22.2581 -22.2581 -22.2032 -22.2032 -22.0597 -22.0596
    -7.3245  -6.9465  -6.8860  -6.6932  -6.1293  -5.2589  -5.0911  -4.7137
    -4.6287  -4.4414   0.4503   0.6018   0.6543   1.2463   1.4448   1.5938
     1.6621   1.6971   2.0655   2.0977   2.2418   2.2568   2.3928   3.2216
     3.3950   3.4181   3.4773   3.6951   3.7044   3.7084   3.7571   4.1083
     4.4285   5.1189   5.5123   5.8314   6.1836   6.7210   6.8451   6.8924
     7.2585   7.5561

          k = 1.5243 0.0000 0.1485 ( 36476 PWs)   bands (ev):

   -44.1341 -44.1341 -22.2581 -22.2581 -22.2032 -22.2032 -22.0596 -22.0596
    -7.2924  -7.0655  -6.8034  -6.7054  -6.0337  -5.4925  -4.9239  -4.6728
    -4.6588  -4.4625   0.4506   0.6869   0.7498   1.0135   1.3625   1.3977
     1.6375   1.7177   2.0225   2.0570   2.3203   2.5836   2.8306   3.1795
     3.3617   3.4463   3.4608   3.6184   3.6222   3.7153   3.7312   4.1439
     4.1753   4.5419   6.0238   6.1900   6.2384   6.6130   6.8374   6.9331
     7.0946   7.4976

          k = 1.5243 0.0000-0.2971 ( 36508 PWs)   bands (ev):

   -44.1341 -44.1341 -22.2581 -22.2581 -22.2032 -22.2032 -22.0596 -22.0596
    -7.2006  -7.2006  -6.7408  -6.7408  -5.7938  -5.7938  -4.7768  -4.7768
    -4.5423  -4.5423   0.5653   0.5653   1.0392   1.0392   1.0889   1.0889
     1.6640   1.6640   2.0183   2.0183   2.7973   2.7973   3.1219   3.1219
     3.3488   3.3488   3.4319   3.4319   3.6825   3.6825   3.8016   3.8016
     4.1887   4.1887   6.2714   6.2714   6.6632   6.6632   6.7892   6.7892
     7.1642   7.1642

          k =-0.2541-0.4514 0.0000 ( 36444 PWs)   bands (ev):

   -44.1350 -44.1350 -22.2628 -22.2628 -22.1797 -22.1797 -22.0625 -22.0624
    -7.6582  -7.2675  -7.0408  -6.8193  -6.3468  -5.3594  -5.0112  -4.8235
    -4.7308  -3.9964   0.5146   0.9074   1.1937   1.3091   1.3250   1.5758
     1.9405   1.9717   2.0833   2.3680   2.4558   3.2073   3.3286   3.3958
     3.5213   3.6545   3.7702   3.8164   3.8300   4.0958   4.1248   4.1805
     4.3554   4.5851   6.0015   6.0405   6.3771   6.5728   6.7732   6.8180
     6.8374   7.0002

          k =-0.2541-0.4514 0.1485 ( 36461 PWs)   bands (ev):

   -44.1350 -44.1350 -22.2628 -22.2628 -22.1797 -22.1797 -22.0625 -22.0624
    -7.6232  -7.3749  -6.9618  -6.8339  -6.2489  -5.6284  -4.8849  -4.7547
    -4.6602  -4.0858   0.5548   0.9696   0.9977   1.2930   1.3443   1.5428
     1.8400   2.1818   2.3729   2.3947   2.4482   2.9069   3.3047   3.3303
     3.4330   3.5602   3.7285   3.8452   3.8705   3.9693   4.1707   4.1986
     4.7373   4.8223   5.7969   5.9850   6.1729   6.3376   6.6693   6.7416
     7.1277   7.2638

          k =-0.2541-0.4514-0.2971 ( 36490 PWs)   bands (ev):

   -44.1350 -44.1350 -22.2628 -22.2628 -22.1797 -22.1797 -22.0625 -22.0625
    -7.5225  -7.5225  -6.8790  -6.8790  -5.9840  -5.9840  -4.8131  -4.8131
    -4.3312  -4.3312   0.7070   0.7070   1.2177   1.2177   1.3213   1.3213
     2.2100   2.2100   2.3807   2.3807   2.6624   2.6624   3.2322   3.2322
     3.3353   3.3353   3.8152   3.8152   3.9836   3.9836   4.1803   4.1803
     5.0938   5.0938   5.6640   5.6640   6.1027   6.1027   6.6875   6.6875
     7.3570   7.3570

          k = 0.0000-0.3869 0.0000 ( 36477 PWs)   bands (ev):

   -44.1354 -44.1354 -22.2648 -22.2648 -22.1699 -22.1699 -22.0637 -22.0636
    -7.7778  -7.3786  -7.1093  -6.8646  -6.4126  -5.4054  -5.0028  -4.8653
    -4.7731  -3.8475   0.4476   0.7780   1.0595   1.2260   1.5463   1.6794
     2.3327   2.3706   2.6787   2.7613   2.9576   3.0813   3.0939   3.1216
     3.5086   3.6285   3.6928   3.9500   3.9700   4.0182   4.2197   4.6622
     4.8401   5.3969   5.7789   5.8282   5.9599   6.1299   6.4125   6.6805
     6.9720   7.1653

          k = 0.0000-0.3869 0.1485 ( 36452 PWs)   bands (ev):

   -44.1354 -44.1354 -22.2648 -22.2648 -22.1699 -22.1699 -22.0637 -22.0636
    -7.7419  -7.4872  -7.0232  -6.8801  -6.3182  -5.6849  -4.9052  -4.7951
    -4.6501  -3.9609   0.4967   0.9638   1.0201   1.1626   1.2190   1.9780
     2.1672   2.3619   2.5706   2.8454   2.9480   3.0018   3.0734   3.3269
     3.5715   3.6804   3.7673   3.9119   4.0335   4.0617   4.1455   4.6660
     4.7657   4.9836   5.8794   6.0243   6.0599   6.0783   6.5437   6.6528
     6.8002   7.1287

          k = 0.0000-0.3869-0.2971 ( 36454 PWs)   bands (ev):

   -44.1354 -44.1354 -22.2648 -22.2648 -22.1699 -22.1699 -22.0636 -22.0636
    -7.6387  -7.6387  -6.9296  -6.9296  -6.0525  -6.0525  -4.8470  -4.8470
    -4.2605  -4.2605   0.7040   0.7040   1.1555   1.1555   1.4189   1.4189
     2.4459   2.4459   2.6920   2.6920   2.9148   2.9148   3.1235   3.1235
     3.8028   3.8028   3.9543   3.9543   3.9941   3.9941   4.3778   4.3778
     4.6898   4.6898   5.9464   5.9464   6.3066   6.3066   6.4212   6.4212
     6.9875   6.9875

          k =-2.0325 0.0000 0.0000 ( 36452 PWs)   bands (ev):

   -44.1354 -44.1354 -22.2648 -22.2648 -22.1699 -22.1699 -22.0637 -22.0636
    -7.7734  -7.3779  -7.1055  -6.8677  -6.4223  -5.4063  -5.0082  -4.8645
    -4.7709  -3.8481   0.4529   0.7834   1.1773   1.2118   1.5558   1.7216
     2.3342   2.3733   2.6777   2.7698   2.9566   2.9588   3.0099   3.1036
     3.6273   3.6383   3.6812   3.8357   3.9454   3.9589   4.2196   4.6623
     4.8301   5.3883   5.8059   5.8358   5.9900   6.1435   6.4315   6.6305
     6.9721   7.1595

          k =-2.0325 0.0000 0.1485 ( 36456 PWs)   bands (ev):

   -44.1354 -44.1354 -22.2648 -22.2648 -22.1699 -22.1699 -22.0637 -22.0636
    -7.7376  -7.4845  -7.0232  -6.8835  -6.3252  -5.6860  -4.9118  -4.7939
    -4.6478  -3.9609   0.4996   0.9740   1.0447   1.2177   1.2744   1.9872
     2.1847   2.3635   2.5725   2.8497   2.8995   2.9477   2.9562   3.3582
     3.5513   3.7399   3.7569   3.9061   3.9527   4.0063   4.1426   4.6660
     4.7599   4.9832   5.9025   6.0295   6.0739   6.0770   6.5183   6.6581
     6.8011   7.1186

          k =-2.0325 0.0000-0.2971 ( 36460 PWs)   bands (ev):

   -44.1354 -44.1354 -22.2648 -22.2648 -22.1699 -22.1699 -22.0636 -22.0636
    -7.6348  -7.6348  -6.9327  -6.9327  -6.0556  -6.0556  -4.8496  -4.8496
    -4.2594  -4.2594   0.7054   0.7054   1.2277   1.2277   1.4275   1.4275
     2.4477   2.4477   2.6715   2.6715   2.9165   2.9165   3.0426   3.0426
     3.8379   3.8379   3.9331   3.9331   3.9470   3.9470   4.3708   4.3708
     4.6885   4.6885   5.9391   5.9391   6.3158   6.3158   6.4238   6.4238
     6.9748   6.9748

     the Fermi energy is     5.4925 ev

!    total energy              =   -4240.95318013 Ry

     total all-electron energy =   -150287.646875 Ry
     estimated scf accuracy    <          9.5E-13 Ry
     smearing contrib. (-TS)   =       0.00000450 Ry
     internal energy E=F+TS    =   -4240.95318463 Ry

     The total energy is F=E-TS. E is the sum of the following terms:
     one-electron contribution =    -166.52245387 Ry
     hartree contribution      =     116.74102369 Ry
     xc contribution           =    -201.48084207 Ry
     ewald contribution        =    -222.17378402 Ry
     one-center paw contrib.   =   -3767.51712837 Ry

     convergence has been achieved in  17 iterations

     Forces acting on atoms (cartesian axes, Ry/au):

     atom    1 type  1   force =     0.00000000   -0.00424769    0.00000000
     atom    2 type  1   force =     0.00000000    0.00424769    0.00000000
     atom    3 type  2   force =     0.00000000    0.00013290    0.00000000
     atom    4 type  2   force =     0.00000000   -0.00013290    0.00000000
     atom    5 type  2   force =     0.00000000    0.00093237    0.00042018
     atom    6 type  2   force =     0.00000000   -0.00093237   -0.00042018
     atom    7 type  2   force =     0.00000000    0.00093237   -0.00042018
     atom    8 type  2   force =     0.00000000   -0.00093237    0.00042018
     atom    9 type  2   force =     0.00000000    0.00576665    0.00570660
     atom   10 type  2   force =     0.00000000   -0.00576665   -0.00570660
     atom   11 type  2   force =     0.00000000    0.00576665   -0.00570660
     atom   12 type  2   force =    -0.00000000   -0.00576665    0.00570660

     Total force =     0.017424     Total SCF correction =     0.000002


     Computing stress (Cartesian axis) and pressure

          total   stress  (Ry/bohr**3)                   (kbar)     P=       -1.37
  -0.00000710   0.00000000   0.00000000           -1.04        0.00        0.00
   0.00000000  -0.00000782   0.00000000            0.00       -1.15        0.00
   0.00000000   0.00000000  -0.00001311            0.00        0.00       -1.93

 
     init_run     :     35.61s CPU     37.13s WALL (       1 calls)
     electrons    :   1653.77s CPU   1670.97s WALL (       1 calls)
     forces       :      7.48s CPU      7.75s WALL (       1 calls)
     stress       :     52.09s CPU     52.78s WALL (       1 calls)

     Called by init_run:
     wfcinit      :     30.64s CPU     30.91s WALL (       1 calls)
     potinit      :      1.46s CPU      1.52s WALL (       1 calls)
     hinit0       :      1.75s CPU      2.67s WALL (       1 calls)

     Called by electrons:
     c_bands      :   1345.47s CPU   1352.80s WALL (      18 calls)
     sum_band     :    276.29s CPU    282.07s WALL (      18 calls)
     v_of_rho     :      8.11s CPU      8.68s WALL (      18 calls)
     newd         :     16.92s CPU     20.65s WALL (      18 calls)
     PAW_pot      :      6.69s CPU      6.71s WALL (      18 calls)
     mix_rho      :      1.39s CPU      1.42s WALL (      18 calls)

     Called by c_bands:
     init_us_2    :     13.66s CPU     13.72s WALL (    2457 calls)
     cegterg      :   1269.29s CPU   1275.86s WALL (    1134 calls)

     Called by *egterg:
     cdiaghg      :     27.49s CPU     27.60s WALL (    7925 calls)
     h_psi        :   1096.56s CPU   1102.91s WALL (    8051 calls)
     s_psi        :     49.73s CPU     49.80s WALL (    8051 calls)
     g_psi        :      2.15s CPU      2.17s WALL (    6854 calls)

     Called by h_psi:
     h_psi:calbec :     42.57s CPU     42.67s WALL (    8051 calls)
     vloc_psi     :   1000.60s CPU   1006.69s WALL (    8051 calls)
     add_vuspsi   :     49.50s CPU     49.59s WALL (    8051 calls)

     General routines
     calbec       :     55.80s CPU     55.95s WALL (    9500 calls)
     fft          :      7.36s CPU      8.14s WALL (     258 calls)
     ffts         :      0.18s CPU      0.18s WALL (      36 calls)
     fftw         :    999.35s CPU   1005.40s WALL (  407894 calls)
     interpolate  :      0.65s CPU      0.65s WALL (      18 calls)
 
     Parallel routines
     fft_scatt_xy :    268.94s CPU    270.57s WALL (  408188 calls)
     fft_scatt_yz :    188.96s CPU    190.59s WALL (  408188 calls)
 
     PWSCF        :  29m 9.56s CPU  29m34.33s WALL

 
   This run was terminated on:  15:15:51  19Nov2021            

=------------------------------------------------------------------------------=
   JOB DONE.
=------------------------------------------------------------------------------=
