
     Program PWSCF v.6.7MaX starts on 19Nov2021 at 15: 0:52 

     This program is part of the open-source Quantum ESPRESSO suite
     for quantum simulation of materials; please cite
         "P. Giannozzi et al., J. Phys.:Condens. Matter 21 395502 (2009);
         "P. Giannozzi et al., J. Phys.:Condens. Matter 29 465901 (2017);
          URL http://www.quantum-espresso.org", 
     in publications or presentations arising from this work. More details at
     http://www.quantum-espresso.org/quote

     Parallel version (MPI), running on    10 processors

     MPI processes distributed on     1 nodes
     R & G space division:  proc/nbgrp/npool/nimage =      10
     Waiting for input...
     Reading input from standard input

     Current dimensions of program PWSCF are:
     Max number of different atomic species (ntypx) = 10
     Max number of k-points (npk) =  40000
     Max angular momentum in pseudopotentials (lmaxx) =  3
     file Zr.pbe-spn-kjpaw_psl.1.0.0.UPF: wavefunction(s)  4S 4P renormalized
     file Te.pbe-n-kjpaw_psl.1.0.0.UPF: wavefunction(s)  5S 5P renormalized

     Subspace diagonalization in iterative solution of the eigenvalue problem:
     a serial algorithm will be used

     Message from routine setup:
     using ibrav=0 with symmetry is DISCOURAGED, use correct ibrav instead
 
     Parallelization info
     --------------------
     sticks:   dense  smooth     PW     G-vecs:    dense   smooth      PW
     Min         734     293     87               115340    29174    4753
     Max         735     295     88               115345    29176    4760
     Sum        7345    2937    873              1153415   291749   47557
 


     bravais-lattice index     =            0
     lattice parameter (alat)  =      15.5510  a.u.
     unit-cell volume          =    3018.5011 (a.u.)^3
     number of atoms/cell      =           12
     number of atomic types    =            2
     number of electrons       =        84.00
     number of Kohn-Sham states=           50
     kinetic-energy cutoff     =      80.0000  Ry
     charge density cutoff     =     800.0000  Ry
     scf convergence threshold =      1.0E-10
     mixing beta               =       0.7000
     number of iterations used =            8  plain     mixing
     Exchange-correlation= SLA  PW   PBX  PBC
                           (   1   4   3   4   0   0   0)

     celldm(1)=  15.551040  celldm(2)=   0.000000  celldm(3)=   0.000000
     celldm(4)=   0.000000  celldm(5)=   0.000000  celldm(6)=   0.000000

     crystal axes: (cart. coord. in units of alat)
               a(1) = (   0.246007  -0.969268   0.000000 )  
               a(2) = (   0.246007   0.969268   0.000000 )  
               a(3) = (   0.000000   0.000000   1.683031 )  

     reciprocal axes: (cart. coord. in units 2 pi/alat)
               b(1) = (  2.032465 -0.515853  0.000000 )  
               b(2) = (  2.032465  0.515853  0.000000 )  
               b(3) = (  0.000000  0.000000  0.594166 )  


     PseudoPot. # 1 for Zr read from file:
     pseudo/Zr.pbe-spn-kjpaw_psl.1.0.0.UPF
     MD5 check sum: 02112c41713a0468aff2bb39ef194e36
     Pseudo is Projector augmented-wave + core cor, Zval = 12.0
     Generated using &quot;atomic&quot; code by A. Dal Corso  v.6.2.2
     Shape of augmentation charge: PSQ
     Using radial grid of 1225 points,  6 beta functions with: 
                l(1) =   0
                l(2) =   0
                l(3) =   1
                l(4) =   1
                l(5) =   2
                l(6) =   2
     Q(r) pseudized with 0 coefficients 


     PseudoPot. # 2 for Te read from file:
     pseudo/Te.pbe-n-kjpaw_psl.1.0.0.UPF
     MD5 check sum: 66247bff2bd9dbf220fbb0bf5ab56e9d
     Pseudo is Projector augmented-wave + core cor, Zval =  6.0
     Generated using &quot;atomic&quot; code by A. Dal Corso  v.6.3
     Shape of augmentation charge: PSQ
     Using radial grid of 1245 points,  6 beta functions with: 
                l(1) =   0
                l(2) =   0
                l(3) =   1
                l(4) =   1
                l(5) =   2
                l(6) =   2
     Q(r) pseudized with 0 coefficients 


     atomic species   valence    mass     pseudopotential
        Zr            12.00    91.22000     Zr( 1.00)
        Te             6.00   127.60000     Te( 1.00)

      8 Sym. Ops., with inversion, found ( 4 have fractional translation)



   Cartesian axes

     site n.     atom                  positions (alat units)
         1           Zr  tau(   1) = (   0.0000000   0.6141958   0.4207578  )
         2           Zr  tau(   2) = (   0.2460067   0.3550724   1.2622733  )
         3           Te  tau(   3) = (   0.2460067   0.3344210   0.4207578  )
         4           Te  tau(   4) = (   0.0000000   0.6348471   1.2622733  )
         5           Te  tau(   5) = (   0.2460067   0.8059164   0.2493948  )
         6           Te  tau(   6) = (   0.0000000   0.1633517   1.4336362  )
         7           Te  tau(   7) = (   0.2460067   0.8059164   0.5921207  )
         8           Te  tau(   8) = (   0.0000000   0.1633517   1.0909103  )
         9           Te  tau(   9) = (   0.0000000   0.3998465   0.7165281  )
        10           Te  tau(  10) = (   0.2460067   0.5694216   0.9665030  )
        11           Te  tau(  11) = (   0.0000000   0.3998465   0.1249874  )
        12           Te  tau(  12) = (   0.2460067   0.5694216   1.5580436  )

     number of k points=    63  Methfessel-Paxton smearing, width (Ry)=  0.0030
                       cart. coord. in units 2pi/alat
        k(    1) = (   0.0000000   0.0000000   0.0000000), wk =   0.0078125
        k(    2) = (   0.0000000   0.0000000   0.1485415), wk =   0.0156250
        k(    3) = (   0.0000000   0.0000000  -0.2970830), wk =   0.0078125
        k(    4) = (   0.2540581   0.0644816   0.0000000), wk =   0.0312500
        k(    5) = (   0.2540581   0.0644816   0.1485415), wk =   0.0625000
        k(    6) = (   0.2540581   0.0644816  -0.2970830), wk =   0.0312500
        k(    7) = (   0.5081162   0.1289633   0.0000000), wk =   0.0312500
        k(    8) = (   0.5081162   0.1289633   0.1485415), wk =   0.0625000
        k(    9) = (   0.5081162   0.1289633  -0.2970830), wk =   0.0312500
        k(   10) = (   0.7621743   0.1934449   0.0000000), wk =   0.0312500
        k(   11) = (   0.7621743   0.1934449   0.1485415), wk =   0.0625000
        k(   12) = (   0.7621743   0.1934449  -0.2970830), wk =   0.0312500
        k(   13) = (  -1.0162324  -0.2579266   0.0000000), wk =   0.0156250
        k(   14) = (  -1.0162324  -0.2579266   0.1485415), wk =   0.0312500
        k(   15) = (  -1.0162324  -0.2579266  -0.2970830), wk =   0.0156250
        k(   16) = (   0.5081162   0.0000000   0.0000000), wk =   0.0156250
        k(   17) = (   0.5081162   0.0000000   0.1485415), wk =   0.0312500
        k(   18) = (   0.5081162   0.0000000  -0.2970830), wk =   0.0156250
        k(   19) = (   0.7621743   0.0644816   0.0000000), wk =   0.0312500
        k(   20) = (   0.7621743   0.0644816   0.1485415), wk =   0.0625000
        k(   21) = (   0.7621743   0.0644816  -0.2970830), wk =   0.0312500
        k(   22) = (   1.0162324   0.1289633   0.0000000), wk =   0.0312500
        k(   23) = (   1.0162324   0.1289633   0.1485415), wk =   0.0625000
        k(   24) = (   1.0162324   0.1289633  -0.2970830), wk =   0.0312500
        k(   25) = (  -0.7621743  -0.3224082   0.0000000), wk =   0.0312500
        k(   26) = (  -0.7621743  -0.3224082   0.1485415), wk =   0.0625000
        k(   27) = (  -0.7621743  -0.3224082  -0.2970830), wk =   0.0312500
        k(   28) = (  -0.5081162  -0.2579266   0.0000000), wk =   0.0312500
        k(   29) = (  -0.5081162  -0.2579266   0.1485415), wk =   0.0625000
        k(   30) = (  -0.5081162  -0.2579266  -0.2970830), wk =   0.0312500
        k(   31) = (  -0.2540581  -0.1934449   0.0000000), wk =   0.0312500
        k(   32) = (  -0.2540581  -0.1934449   0.1485415), wk =   0.0625000
        k(   33) = (  -0.2540581  -0.1934449  -0.2970830), wk =   0.0312500
        k(   34) = (   0.0000000  -0.1289633   0.0000000), wk =   0.0156250
        k(   35) = (   0.0000000  -0.1289633   0.1485415), wk =   0.0312500
        k(   36) = (   0.0000000  -0.1289633  -0.2970830), wk =   0.0156250
        k(   37) = (   1.0162324   0.0000000   0.0000000), wk =   0.0156250
        k(   38) = (   1.0162324   0.0000000   0.1485415), wk =   0.0312500
        k(   39) = (   1.0162324   0.0000000  -0.2970830), wk =   0.0156250
        k(   40) = (   1.2702905   0.0644816   0.0000000), wk =   0.0312500
        k(   41) = (   1.2702905   0.0644816   0.1485415), wk =   0.0625000
        k(   42) = (   1.2702905   0.0644816  -0.2970830), wk =   0.0312500
        k(   43) = (  -0.5081162  -0.3868899   0.0000000), wk =   0.0312500
        k(   44) = (  -0.5081162  -0.3868899   0.1485415), wk =   0.0625000
        k(   45) = (  -0.5081162  -0.3868899  -0.2970830), wk =   0.0312500
        k(   46) = (  -0.2540581  -0.3224082   0.0000000), wk =   0.0312500
        k(   47) = (  -0.2540581  -0.3224082   0.1485415), wk =   0.0625000
        k(   48) = (  -0.2540581  -0.3224082  -0.2970830), wk =   0.0312500
        k(   49) = (   0.0000000  -0.2579266   0.0000000), wk =   0.0156250
        k(   50) = (   0.0000000  -0.2579266   0.1485415), wk =   0.0312500
        k(   51) = (   0.0000000  -0.2579266  -0.2970830), wk =   0.0156250
        k(   52) = (   1.5243485   0.0000000   0.0000000), wk =   0.0156250
        k(   53) = (   1.5243485   0.0000000   0.1485415), wk =   0.0312500
        k(   54) = (   1.5243485   0.0000000  -0.2970830), wk =   0.0156250
        k(   55) = (  -0.2540581  -0.4513715   0.0000000), wk =   0.0312500
        k(   56) = (  -0.2540581  -0.4513715   0.1485415), wk =   0.0625000
        k(   57) = (  -0.2540581  -0.4513715  -0.2970830), wk =   0.0312500
        k(   58) = (   0.0000000  -0.3868899   0.0000000), wk =   0.0156250
        k(   59) = (   0.0000000  -0.3868899   0.1485415), wk =   0.0312500
        k(   60) = (   0.0000000  -0.3868899  -0.2970830), wk =   0.0156250
        k(   61) = (  -2.0324647   0.0000000   0.0000000), wk =   0.0078125
        k(   62) = (  -2.0324647   0.0000000   0.1485415), wk =   0.0156250
        k(   63) = (  -2.0324647   0.0000000  -0.2970830), wk =   0.0078125

     Dense  grid:  1153415 G-vectors     FFT dimensions: ( 144, 144, 240)

     Smooth grid:   291749 G-vectors     FFT dimensions: (  90,  90, 150)

     Estimated max dynamical RAM per process >     657.19 MB

     Estimated total dynamical RAM >       6.42 GB

     Initial potential from superposition of free atoms

     starting charge   83.99353, renormalised to   84.00000
     Starting wfcs are   66 randomized atomic wfcs
     Checking if some PAW data can be deallocated... 

     total cpu time spent up to now is       37.0 secs

     Self-consistent Calculation

     iteration #  1     ecut=    80.00 Ry     beta= 0.70
     Davidson diagonalization with overlap
     ethr =  1.00E-02,  avg # of iterations =  2.0

     Threshold (ethr) on eigenvalues was too large:
     Diagonalizing with lowered threshold

     Davidson diagonalization with overlap
     ethr =  3.64E-04,  avg # of iterations =  4.1

     total cpu time spent up to now is      199.8 secs

     total energy              =   -4240.70442363 Ry
     estimated scf accuracy    <       0.42350441 Ry

     iteration #  2     ecut=    80.00 Ry     beta= 0.70
     Davidson diagonalization with overlap
     ethr =  5.04E-04,  avg # of iterations =  7.4

     total cpu time spent up to now is      312.2 secs

     total energy              =   -4240.61422593 Ry
     estimated scf accuracy    <       2.17837238 Ry

     iteration #  3     ecut=    80.00 Ry     beta= 0.70
     Davidson diagonalization with overlap
     ethr =  5.04E-04,  avg # of iterations =  5.1

     total cpu time spent up to now is      407.2 secs

     total energy              =   -4240.89908347 Ry
     estimated scf accuracy    <       0.02501801 Ry

     iteration #  4     ecut=    80.00 Ry     beta= 0.70
     Davidson diagonalization with overlap
     c_bands:  1 eigenvalues not converged
     c_bands:  2 eigenvalues not converged
     c_bands:  1 eigenvalues not converged
     ethr =  2.98E-05,  avg # of iterations = 14.9

     total cpu time spent up to now is      564.3 secs

     total energy              =   -4240.92105720 Ry
     estimated scf accuracy    <       0.10033901 Ry

     iteration #  5     ecut=    80.00 Ry     beta= 0.70
     Davidson diagonalization with overlap
     ethr =  2.98E-05,  avg # of iterations =  4.0

     total cpu time spent up to now is      644.0 secs

     total energy              =   -4240.92237534 Ry
     estimated scf accuracy    <       0.02522928 Ry

     iteration #  6     ecut=    80.00 Ry     beta= 0.70
     Davidson diagonalization with overlap
     ethr =  2.98E-05,  avg # of iterations =  2.8

     total cpu time spent up to now is      716.3 secs

     total energy              =   -4240.92380292 Ry
     estimated scf accuracy    <       0.00318562 Ry

     iteration #  7     ecut=    80.00 Ry     beta= 0.70
     Davidson diagonalization with overlap
     c_bands:  1 eigenvalues not converged
     c_bands:  2 eigenvalues not converged
     c_bands:  1 eigenvalues not converged
     c_bands:  2 eigenvalues not converged
     c_bands:  2 eigenvalues not converged
     c_bands:  1 eigenvalues not converged
     c_bands:  1 eigenvalues not converged
     c_bands:  2 eigenvalues not converged
     c_bands:  1 eigenvalues not converged
     ethr =  3.79E-06,  avg # of iterations = 13.6

     total cpu time spent up to now is      843.4 secs

     total energy              =   -4240.92566874 Ry
     estimated scf accuracy    <       0.00272906 Ry

     iteration #  8     ecut=    80.00 Ry     beta= 0.70
     Davidson diagonalization with overlap
     ethr =  3.25E-06,  avg # of iterations =  2.6

     total cpu time spent up to now is      912.2 secs

     total energy              =   -4240.92567194 Ry
     estimated scf accuracy    <       0.00061707 Ry

     iteration #  9     ecut=    80.00 Ry     beta= 0.70
     Davidson diagonalization with overlap
     ethr =  7.35E-07,  avg # of iterations =  5.5

     total cpu time spent up to now is      994.9 secs

     total energy              =   -4240.92579248 Ry
     estimated scf accuracy    <       0.00001054 Ry

     iteration # 10     ecut=    80.00 Ry     beta= 0.70
     Davidson diagonalization with overlap
     c_bands:  1 eigenvalues not converged
     ethr =  1.26E-08,  avg # of iterations = 10.3

     total cpu time spent up to now is     1124.6 secs

     total energy              =   -4240.92581614 Ry
     estimated scf accuracy    <       0.00001619 Ry

     iteration # 11     ecut=    80.00 Ry     beta= 0.70
     Davidson diagonalization with overlap
     ethr =  1.26E-08,  avg # of iterations =  2.9

     total cpu time spent up to now is     1200.4 secs

     total energy              =   -4240.92581815 Ry
     estimated scf accuracy    <       0.00000031 Ry

     iteration # 12     ecut=    80.00 Ry     beta= 0.70
     Davidson diagonalization with overlap
     c_bands:  1 eigenvalues not converged
     c_bands:  1 eigenvalues not converged
     ethr =  3.71E-10,  avg # of iterations =  9.8

     total cpu time spent up to now is     1330.4 secs

     total energy              =   -4240.92581846 Ry
     estimated scf accuracy    <       0.00000085 Ry

     iteration # 13     ecut=    80.00 Ry     beta= 0.70
     Davidson diagonalization with overlap
     ethr =  3.71E-10,  avg # of iterations =  4.1

     total cpu time spent up to now is     1413.9 secs

     total energy              =   -4240.92581854 Ry
     estimated scf accuracy    <       0.00000004 Ry

     iteration # 14     ecut=    80.00 Ry     beta= 0.70
     Davidson diagonalization with overlap
     ethr =  4.41E-11,  avg # of iterations =  7.4

     total cpu time spent up to now is     1518.0 secs

     total energy              =   -4240.92581856 Ry
     estimated scf accuracy    <       0.00000003 Ry

     iteration # 15     ecut=    80.00 Ry     beta= 0.70
     Davidson diagonalization with overlap
     ethr =  3.31E-11,  avg # of iterations =  1.9

     total cpu time spent up to now is     1585.5 secs

     total energy              =   -4240.92581856 Ry
     estimated scf accuracy    <          4.1E-09 Ry

     iteration # 16     ecut=    80.00 Ry     beta= 0.70
     Davidson diagonalization with overlap
     ethr =  4.89E-12,  avg # of iterations =  6.7

     total cpu time spent up to now is     1685.3 secs

     total energy              =   -4240.92581856 Ry
     estimated scf accuracy    <          1.7E-09 Ry

     iteration # 17     ecut=    80.00 Ry     beta= 0.70
     Davidson diagonalization with overlap
     ethr =  2.07E-12,  avg # of iterations =  1.6

     total cpu time spent up to now is     1751.3 secs

     total energy              =   -4240.92581856 Ry
     estimated scf accuracy    <          7.5E-10 Ry

     iteration # 18     ecut=    80.00 Ry     beta= 0.70
     Davidson diagonalization with overlap
     ethr =  8.90E-13,  avg # of iterations =  4.1

     total cpu time spent up to now is     1825.9 secs

     End of self-consistent calculation

          k = 0.0000 0.0000 0.0000 ( 36359 PWs)   bands (ev):

   -44.1685 -44.1684 -22.3182 -22.3182 -22.2087 -22.2087 -22.0878 -22.0877
    -7.6250  -7.2117  -6.7734  -6.7643  -6.6720  -5.2288  -5.1869  -4.9401
    -4.8810  -3.8654   0.4870   0.6360   0.8125   1.0256   1.4638   1.6449
     2.3944   2.5425   2.5710   2.9886   3.0285   3.0743   3.2673   3.4731
     3.5076   3.5105   3.8619   4.0335   4.0342   4.2660   4.3088   4.6165
     5.3204   5.5170   5.5211   5.5517   5.8828   6.0971   6.4774   6.7434
     6.9287   7.3219

          k = 0.0000 0.0000 0.1485 ( 36415 PWs)   bands (ev):

   -44.1685 -44.1684 -22.3182 -22.3182 -22.2087 -22.2087 -22.0878 -22.0877
    -7.5871  -7.3180  -6.7864  -6.7691  -6.4792  -5.6731  -4.9674  -4.8947
    -4.7023  -3.9797   0.5165   0.6743   0.9005   1.0634   1.0778   2.0886
     2.1405   2.4142   2.5191   3.0393   3.0832   3.1916   3.2650   3.3444
     3.6445   3.6837   3.8105   3.9928   4.0196   4.2851   4.3196   4.6417
     5.0039   5.0745   5.6654   5.9133   6.0815   6.1191   6.5574   6.7413
     6.7728   7.3076

          k = 0.0000 0.0000-0.2971 ( 36410 PWs)   bands (ev):

   -44.1685 -44.1685 -22.3182 -22.3182 -22.2087 -22.2087 -22.0878 -22.0878
    -7.4777  -7.4777  -6.7799  -6.7799  -6.1111  -6.1111  -4.9281  -4.9281
    -4.2860  -4.2860   0.6756   0.6756   0.8219   0.8219   1.5094   1.5094
     2.4647   2.4647   2.7096   2.7096   3.1171   3.1171   3.2912   3.2912
     3.8030   3.8030   3.8544   3.8544   4.3048   4.3048   4.4380   4.4380
     4.7495   4.7495   5.9490   5.9490   6.2782   6.2782   6.3892   6.3892
     7.2049   7.2049

          k = 0.2541 0.0645 0.0000 ( 36396 PWs)   bands (ev):

   -44.1681 -44.1681 -22.3163 -22.3163 -22.2189 -22.2189 -22.0865 -22.0864
    -7.5113  -7.1188  -6.7196  -6.6759  -6.6177  -5.2033  -5.1638  -4.9004
    -4.8405  -3.9997   0.5750   0.7744   0.9516   1.1420   1.2195   1.5489
     1.9541   2.1810   2.2353   2.5028   2.6002   2.9391   3.5390   3.5948
     3.6282   3.6829   3.6982   3.8531   4.0712   4.0888   4.1788   4.2849
     4.4545   4.7814   5.6229   6.0166   6.3318   6.5376   6.5980   6.8160
     7.0089   7.1508

          k = 0.2541 0.0645 0.1485 ( 36423 PWs)   bands (ev):

   -44.1681 -44.1681 -22.3163 -22.3163 -22.2189 -22.2189 -22.0865 -22.0864
    -7.4744  -7.2158  -6.7292  -6.7224  -6.3982  -5.6174  -4.9437  -4.8563
    -4.7041  -4.0913   0.5925   0.8153   0.9685   1.0080   1.1382   1.6458
     1.8907   2.2547   2.5145   2.5798   2.6063   2.8977   3.2303   3.3113
     3.5933   3.7018   3.7781   3.8622   3.9738   4.0673   4.2105   4.2677
     4.7187   5.1213   5.7529   5.8166   6.2294   6.2860   6.5011   6.6479
     7.2573   7.2840

          k = 0.2541 0.0645-0.2971 ( 36436 PWs)   bands (ev):

   -44.1681 -44.1681 -22.3163 -22.3163 -22.2189 -22.2189 -22.0865 -22.0865
    -7.3682  -7.3682  -6.7318  -6.7318  -6.0366  -6.0366  -4.8952  -4.8952
    -4.3456  -4.3456   0.7129   0.7129   0.9209   0.9209   1.3470   1.3470
     2.2391   2.2391   2.6272   2.6272   2.7778   2.7778   3.0698   3.0698
     3.5605   3.5605   3.8256   3.8256   3.9821   3.9821   4.2616   4.2616
     5.2581   5.2581   5.7332   5.7332   6.0385   6.0385   6.4966   6.4966
     7.4202   7.4203

          k = 0.5081 0.1290 0.0000 ( 36499 PWs)   bands (ev):

   -44.1671 -44.1671 -22.3115 -22.3115 -22.2434 -22.2434 -22.0833 -22.0833
    -7.1949  -6.8969  -6.5911  -6.4352  -6.3980  -5.1761  -5.1439  -4.7954
    -4.7407  -4.4069   0.4585   0.7586   0.8435   1.1485   1.3553   1.4747
     1.6412   1.7694   1.9587   2.1733   2.2042   2.2550   2.6293   3.1431
     3.2891   3.3819   3.4205   3.5374   3.7681   3.8186   4.0161   4.1490
     4.7661   5.3004   5.4314   5.7848   5.8648   6.5118   6.5276   6.7930
     7.3350   7.5386

          k = 0.5081 0.1290 0.1485 ( 36476 PWs)   bands (ev):

   -44.1671 -44.1671 -22.3115 -22.3115 -22.2434 -22.2434 -22.0833 -22.0833
    -7.1624  -6.9555  -6.5934  -6.5540  -6.1603  -5.4866  -4.9425  -4.7697
    -4.7117  -4.4398   0.4878   0.7721   0.9602   1.0988   1.1886   1.4159
     1.4642   1.6890   2.0417   2.0585   2.3402   2.5958   2.9102   3.1861
     3.2739   3.3804   3.4565   3.5591   3.6049   3.8225   3.8513   4.2085
     4.4567   4.6392   5.9547   6.0223   6.2215   6.5277   6.5677   6.6885
     7.1887   7.4759

          k = 0.5081 0.1290-0.2971 ( 36466 PWs)   bands (ev):

   -44.1671 -44.1671 -22.3115 -22.3115 -22.2434 -22.2434 -22.0833 -22.0833
    -7.0719  -7.0719  -6.5909  -6.5909  -5.8361  -5.8361  -4.8403  -4.8403
    -4.5472  -4.5472   0.6225   0.6225   1.1079   1.1079   1.2706   1.2706
     1.3632   1.3632   2.0588   2.0588   2.8164   2.8164   3.0714   3.0714
     3.2853   3.2853   3.5297   3.5297   3.7214   3.7214   3.8831   3.8831
     4.3009   4.3009   6.1760   6.1760   6.5225   6.5225   6.7511   6.7511
     7.0863   7.0863

          k = 0.7622 0.1934 0.0000 ( 36521 PWs)   bands (ev):

   -44.1662 -44.1662 -22.3066 -22.3066 -22.2679 -22.2679 -22.0802 -22.0801
    -6.8174  -6.7108  -6.3240  -6.0733  -5.9903  -5.2806  -5.2488  -5.0369
    -4.6747  -4.6396  -0.0073   0.3528   0.6675   1.1738   1.1834   1.2164
     1.4770   1.5804   1.8947   1.9408   2.2463   2.4838   2.5647   2.6948
     2.7293   3.2444   3.2617   3.3075   3.6402   3.6512   3.7800   3.9167
     4.0485   4.5798   5.7344   6.1149   6.1907   6.5910   6.6676   6.7522
     7.1572   7.6440

          k = 0.7622 0.1934 0.1485 ( 36503 PWs)   bands (ev):

   -44.1662 -44.1662 -22.3066 -22.3066 -22.2679 -22.2679 -22.0802 -22.0801
    -6.8009  -6.7246  -6.3164  -6.1936  -5.8197  -5.4017  -5.1803  -5.0592
    -4.6627  -4.6393   0.0777   0.4477   0.5627   0.9651   1.1716   1.2143
     1.4927   1.6115   1.7433   2.0928   2.1265   2.6359   2.6546   2.8056
     2.8572   3.1853   3.2744   3.3536   3.4385   3.6665   3.7072   3.8603
     4.0312   4.8758   5.2640   6.1850   6.4903   6.5189   6.6609   6.8700
     6.9345   7.4061

          k = 0.7622 0.1934-0.2971 ( 36522 PWs)   bands (ev):

   -44.1662 -44.1662 -22.3066 -22.3066 -22.2679 -22.2679 -22.0801 -22.0801
    -6.7616  -6.7616  -6.2815  -6.2815  -5.5983  -5.5983  -5.1137  -5.1137
    -4.6452  -4.6452   0.2959   0.2959   0.7433   0.7433   1.0578   1.0578
     1.5716   1.5716   1.9491   1.9491   2.3835   2.3835   2.7988   2.7988
     2.9862   2.9862   3.4403   3.4403   3.5533   3.5533   3.7599   3.7599
     4.2488   4.2488   5.9249   5.9249   6.3316   6.3316   6.7443   6.7443
     7.2517   7.2517

          k =-1.0162-0.2579 0.0000 ( 36506 PWs)   bands (ev):

   -44.1658 -44.1658 -22.3044 -22.3044 -22.2781 -22.2781 -22.0788 -22.0788
    -6.6747  -6.6544  -5.7729  -5.7670  -5.5974  -5.5925  -5.5657  -5.5494
    -4.6156  -4.6016   0.1093   0.1377   0.4671   0.4836   1.0111   1.0173
     1.4712   1.6765   2.2083   2.3037   2.3068   2.3114   2.8105   2.8470
     2.8569   2.9968   3.2521   3.2625   3.3191   3.4835   3.5798   3.6968
     3.8638   3.9030   6.2909   6.3268   6.3938   6.4806   6.8937   6.9360
     6.9511   6.9563

          k =-1.0162-0.2579 0.1485 ( 36506 PWs)   bands (ev):

   -44.1658 -44.1658 -22.3044 -22.3044 -22.2781 -22.2781 -22.0788 -22.0788
    -6.6712  -6.6568  -5.7644  -5.7595  -5.6631  -5.6577  -5.4986  -5.4897
    -4.6213  -4.6114   0.0314   0.0414   0.6663   0.6685   1.0438   1.0723
     1.4584   1.5556   1.9223   1.9681   2.3423   2.3510   2.7709   2.7912
     2.9429   2.9661   3.2149   3.2523   3.5002   3.5542   3.6941   3.7394
     4.1460   4.1707   5.8118   5.8155   6.3329   6.4019   6.7839   6.8257
     7.1797   7.1962

          k =-1.0162-0.2579-0.2971 ( 36528 PWs)   bands (ev):

   -44.1658 -44.1658 -22.3044 -22.3044 -22.2781 -22.2781 -22.0788 -22.0788
    -6.6634  -6.6634  -5.7460  -5.7460  -5.7040  -5.7040  -5.4602  -5.4602
    -4.6243  -4.6243  -0.0187  -0.0187   0.8700   0.8700   1.1361   1.1361
     1.4215   1.4215   1.6514   1.6514   2.3466   2.3466   2.8001   2.8001
     2.9227   2.9227   3.2563   3.2563   3.5502   3.5502   3.7601   3.7601
     4.7480   4.7480   5.1397   5.1397   6.3058   6.3058   6.8133   6.8133
     7.2356   7.2356

          k = 0.5081 0.0000 0.0000 ( 36503 PWs)   bands (ev):

   -44.1671 -44.1671 -22.3115 -22.3115 -22.2434 -22.2434 -22.0833 -22.0833
    -7.2016  -6.9005  -6.5826  -6.4296  -6.3995  -5.1772  -5.1398  -4.7922
    -4.7450  -4.4065   0.4560   0.7570   0.8506   1.1137   1.3510   1.4547
     1.6483   1.7721   1.9693   2.1372   2.2159   2.2195   2.6390   3.1235
     3.2905   3.3797   3.4747   3.5701   3.7760   3.8040   4.0485   4.1872
     4.7684   5.3065   5.4400   5.8129   5.8458   6.4724   6.4762   6.8282
     7.3668   7.5469

          k = 0.5081 0.0000 0.1485 ( 36453 PWs)   bands (ev):

   -44.1671 -44.1671 -22.3115 -22.3115 -22.2434 -22.2434 -22.0833 -22.0833
    -7.1691  -6.9608  -6.5845  -6.5478  -6.1612  -5.4877  -4.9354  -4.7711
    -4.7134  -4.4406   0.4848   0.7670   0.9669   1.1008   1.1572   1.4010
     1.4585   1.6884   2.0401   2.0544   2.3339   2.5714   2.9013   3.1729
     3.2668   3.4100   3.4873   3.5887   3.5959   3.8521   3.8574   4.2428
     4.4728   4.6433   5.9597   6.0381   6.2228   6.4762   6.5335   6.7181
     7.2158   7.4783

          k = 0.5081 0.0000-0.2971 ( 36452 PWs)   bands (ev):

   -44.1671 -44.1671 -22.3115 -22.3115 -22.2434 -22.2434 -22.0833 -22.0833
    -7.0782  -7.0782  -6.5826  -6.5826  -5.8376  -5.8376  -4.8359  -4.8359
    -4.5498  -4.5498   0.6175   0.6175   1.1090   1.1090   1.2679   1.2679
     1.3428   1.3428   2.0574   2.0574   2.8067   2.8067   3.0446   3.0446
     3.2784   3.2784   3.5952   3.5952   3.7239   3.7239   3.8864   3.8864
     4.3273   4.3273   6.1909   6.1909   6.4896   6.4896   6.7640   6.7640
     7.0884   7.0884

          k = 0.7622 0.0645 0.0000 ( 36505 PWs)   bands (ev):

   -44.1662 -44.1662 -22.3066 -22.3066 -22.2679 -22.2679 -22.0802 -22.0801
    -6.8271  -6.7095  -6.3142  -6.0720  -5.9937  -5.2810  -5.2428  -5.0368
    -4.6702  -4.6456  -0.0143   0.3649   0.6948   1.1642   1.2195   1.2311
     1.4307   1.5356   1.8697   1.9489   2.1865   2.4710   2.5521   2.6801
     2.6924   3.2927   3.3075   3.3131   3.5863   3.6713   3.8395   3.9448
     4.0664   4.6253   5.7334   6.1263   6.1542   6.5545   6.7076   6.7249
     7.1846   7.6436

          k = 0.7622 0.0645 0.1485 ( 36509 PWs)   bands (ev):

   -44.1662 -44.1662 -22.3066 -22.3066 -22.2679 -22.2679 -22.0802 -22.0801
    -6.8097  -6.7256  -6.3070  -6.1906  -5.8226  -5.4024  -5.1754  -5.0582
    -4.6597  -4.6436   0.0734   0.4560   0.5721   0.9913   1.1913   1.2055
     1.4512   1.6204   1.7479   2.0339   2.0453   2.6293   2.6547   2.7737
     2.8531   3.1837   3.3458   3.3760   3.4002   3.6871   3.7427   3.8778
     4.0816   4.8751   5.2920   6.1723   6.4878   6.4981   6.6782   6.8714
     6.9208   7.4242

          k = 0.7622 0.0645-0.2971 ( 36472 PWs)   bands (ev):

   -44.1662 -44.1662 -22.3066 -22.3066 -22.2679 -22.2679 -22.0801 -22.0801
    -6.7671  -6.7671  -6.2743  -6.2743  -5.6007  -5.6007  -5.1106  -5.1106
    -4.6457  -4.6457   0.2974   0.2974   0.7406   0.7406   1.0847   1.0847
     1.5685   1.5685   1.8917   1.8917   2.3500   2.3500   2.7854   2.7854
     2.9872   2.9872   3.5083   3.5083   3.5538   3.5538   3.7558   3.7558
     4.2736   4.2736   5.9482   5.9482   6.3327   6.3327   6.7092   6.7092
     7.2773   7.2773

          k = 1.0162 0.1290 0.0000 ( 36514 PWs)   bands (ev):

   -44.1658 -44.1658 -22.3044 -22.3044 -22.2781 -22.2781 -22.0788 -22.0788
    -6.6747  -6.6544  -5.7723  -5.7676  -5.5983  -5.5917  -5.5657  -5.5494
    -4.6156  -4.6016   0.1036   0.1434   0.4605   0.4903   1.0062   1.0244
     1.4760   1.6678   2.2134   2.2845   2.3036   2.3153   2.8148   2.8493
     2.8839   2.9899   3.2166   3.2903   3.3272   3.4855   3.5624   3.7017
     3.8745   3.8898   6.2922   6.3273   6.3891   6.4856   6.9003   6.9393
     6.9491   6.9585

          k = 1.0162 0.1290 0.1485 ( 36524 PWs)   bands (ev):

   -44.1658 -44.1658 -22.3044 -22.3044 -22.2781 -22.2781 -22.0788 -22.0788
    -6.6712  -6.6568  -5.7638  -5.7600  -5.6637  -5.6571  -5.4988  -5.4895
    -4.6213  -4.6114   0.0294   0.0429   0.6633   0.6720   1.0483   1.0693
     1.4621   1.5547   1.9170   1.9670   2.3339   2.3468   2.7325   2.8399
     2.9629   2.9760   3.1889   3.2549   3.5009   3.5814   3.6859   3.7110
     4.1525   4.1697   5.7990   5.8302   6.3304   6.4043   6.7905   6.8253
     7.1821   7.1937

          k = 1.0162 0.1290-0.2971 ( 36516 PWs)   bands (ev):

   -44.1658 -44.1658 -22.3044 -22.3044 -22.2781 -22.2781 -22.0788 -22.0788
    -6.6634  -6.6634  -5.7460  -5.7460  -5.7040  -5.7040  -5.4602  -5.4602
    -4.6243  -4.6243  -0.0188  -0.0188   0.8693   0.8693   1.1397   1.1397
     1.4197   1.4197   1.6520   1.6520   2.3361   2.3361   2.7826   2.7826
     2.9688   2.9688   3.2374   3.2374   3.5577   3.5577   3.7505   3.7505
     4.7482   4.7482   5.1415   5.1415   6.3056   6.3056   6.8161   6.8161
     7.2353   7.2353

          k =-0.7622-0.3224 0.0000 ( 36511 PWs)   bands (ev):

   -44.1662 -44.1662 -22.3066 -22.3066 -22.2679 -22.2679 -22.0802 -22.0801
    -6.8018  -6.7141  -6.3379  -6.0753  -5.9855  -5.2800  -5.2574  -5.0372
    -4.6786  -4.6337   0.0026   0.3363   0.6316   1.1589   1.1868   1.1963
     1.4979   1.6535   1.9315   1.9411   2.3373   2.5005   2.5852   2.7185
     2.7698   3.1493   3.2239   3.3409   3.6066   3.6511   3.7406   3.8759
     4.0207   4.5078   5.7364   6.1162   6.2310   6.5866   6.6465   6.8199
     7.1137   7.6487

          k =-0.7622-0.3224 0.1485 ( 36492 PWs)   bands (ev):

   -44.1662 -44.1662 -22.3066 -22.3066 -22.2679 -22.2679 -22.0802 -22.0801
    -6.7872  -6.7243  -6.3298  -6.1982  -5.8155  -5.4008  -5.1871  -5.0606
    -4.6653  -4.6350   0.0835   0.4375   0.5475   0.9374   1.1512   1.2221
     1.5527   1.6007   1.7274   2.1870   2.2410   2.6438   2.6617   2.8357
     2.8652   3.1725   3.2109   3.3346   3.4704   3.6203   3.6721   3.8283
     3.9485   4.8758   5.2263   6.2060   6.4753   6.5395   6.6570   6.8869
     6.9496   7.3757

          k =-0.7622-0.3224-0.2971 ( 36508 PWs)   bands (ev):

   -44.1662 -44.1662 -22.3066 -22.3066 -22.2679 -22.2679 -22.0801 -22.0801
    -6.7535  -6.7535  -6.2919  -6.2919  -5.5949  -5.5949  -5.1182  -5.1182
    -4.6445  -4.6445   0.2932   0.2932   0.7471   0.7471   1.0275   1.0275
     1.5735   1.5735   2.0197   2.0197   2.4440   2.4440   2.8226   2.8226
     2.9831   2.9831   3.3471   3.3471   3.5575   3.5575   3.7462   3.7462
     4.2142   4.2142   5.8939   5.8939   6.3282   6.3282   6.8047   6.8047
     7.2080   7.2080

          k =-0.5081-0.2579 0.0000 ( 36480 PWs)   bands (ev):

   -44.1671 -44.1671 -22.3115 -22.3115 -22.2434 -22.2434 -22.0833 -22.0833
    -7.1778  -6.8887  -6.6110  -6.4498  -6.3941  -5.1736  -5.1537  -4.8003
    -4.7331  -4.4079   0.4657   0.7560   0.8271   1.2473   1.3643   1.5277
     1.6301   1.7634   1.9401   2.2185   2.2363   2.2974   2.6100   3.1967
     3.2910   3.2971   3.3927   3.4327   3.7384   3.8278   3.9696   4.0711
     4.7580   5.2884   5.3994   5.7248   5.9134   6.6087   6.6475   6.7087
     7.2570   7.5244

          k =-0.5081-0.2579 0.1485 ( 36485 PWs)   bands (ev):

   -44.1671 -44.1671 -22.3115 -22.3115 -22.2434 -22.2434 -22.0833 -22.0833
    -7.1454  -6.9426  -6.6144  -6.5708  -6.1580  -5.4840  -4.9584  -4.7680
    -4.7071  -4.4380   0.4956   0.7794   0.9451   1.0943   1.2764   1.4313
     1.5056   1.6846   2.0489   2.0693   2.3522   2.6527   2.9292   3.2208
     3.2726   3.2913   3.4322   3.4558   3.6135   3.7865   3.8300   4.1344
     4.4101   4.6296   5.9255   6.0018   6.2190   6.6158   6.6454   6.6608
     7.1213   7.4737

          k =-0.5081-0.2579-0.2971 ( 36478 PWs)   bands (ev):

   -44.1671 -44.1671 -22.3115 -22.3115 -22.2434 -22.2434 -22.0833 -22.0833
    -7.0556  -7.0556  -6.6120  -6.6120  -5.8325  -5.8325  -4.8506  -4.8506
    -4.5413  -4.5413   0.6338   0.6338   1.1038   1.1038   1.2702   1.2702
     1.4276   1.4276   2.0617   2.0617   2.8408   2.8408   3.1426   3.1426
     3.3008   3.3008   3.3752   3.3752   3.7066   3.7066   3.8747   3.8747
     4.2345   4.2345   6.1377   6.1377   6.5922   6.5922   6.7299   6.7299
     7.0844   7.0844

          k =-0.2541-0.1934 0.0000 ( 36410 PWs)   bands (ev):

   -44.1681 -44.1681 -22.3163 -22.3163 -22.2189 -22.2189 -22.0865 -22.0864
    -7.4990  -7.1062  -6.7369  -6.6732  -6.6355  -5.2012  -5.1714  -4.9070
    -4.8325  -4.0007   0.6090   0.8507   0.9616   1.1639   1.2506   1.5505
     1.9736   2.1879   2.2532   2.4651   2.5746   3.0107   3.4051   3.4852
     3.5582   3.6840   3.7518   3.8594   4.0337   4.0715   4.1521   4.2525
     4.3964   4.7467   5.6687   6.0283   6.3622   6.5557   6.6002   6.8407
     7.0076   7.0785

          k =-0.2541-0.1934 0.1485 ( 36427 PWs)   bands (ev):

   -44.1681 -44.1681 -22.3163 -22.3163 -22.2189 -22.2189 -22.0865 -22.0864
    -7.4621  -7.2028  -6.7488  -6.7346  -6.3994  -5.6153  -4.9611  -4.8527
    -4.6976  -4.0910   0.6199   0.8787   1.0008   1.0494   1.1472   1.6629
     1.8903   2.2583   2.4843   2.5617   2.6274   2.9146   3.2260   3.3232
     3.4593   3.6113   3.7671   3.8725   3.9611   4.0533   4.1515   4.2184
     4.6958   5.0981   5.7606   5.8056   6.1941   6.3161   6.5865   6.6721
     7.2375   7.2527

          k =-0.2541-0.1934-0.2971 ( 36422 PWs)   bands (ev):

   -44.1681 -44.1681 -22.3163 -22.3163 -22.2189 -22.2189 -22.0865 -22.0865
    -7.3556  -7.3556  -6.7490  -6.7490  -6.0346  -6.0346  -4.9020  -4.9020
    -4.3424  -4.3424   0.7324   0.7324   0.9871   0.9871   1.3568   1.3568
     2.2374   2.2374   2.5888   2.5888   2.7967   2.7967   3.1011   3.1011
     3.4596   3.4596   3.8000   3.8000   3.9772   3.9772   4.2045   4.2045
     5.2432   5.2432   5.6985   5.6985   6.0240   6.0240   6.5856   6.5856
     7.4011   7.4012

          k = 0.0000-0.1290 0.0000 ( 36417 PWs)   bands (ev):

   -44.1685 -44.1684 -22.3182 -22.3182 -22.2087 -22.2087 -22.0878 -22.0877
    -7.6186  -7.2043  -6.7742  -6.7720  -6.6822  -5.2277  -5.1907  -4.9451
    -4.8756  -3.8660   0.5157   0.6788   0.8187   1.0272   1.4871   1.6548
     2.3985   2.5495   2.5687   2.9963   3.0681   3.0682   3.2647   3.4026
     3.4399   3.4972   3.8151   4.0217   4.0335   4.2127   4.2603   4.6186
     5.3140   5.5017   5.5281   5.5429   5.8940   6.1364   6.5291   6.7099
     6.9298   7.4553

          k = 0.0000-0.1290 0.1485 ( 36419 PWs)   bands (ev):

   -44.1685 -44.1684 -22.3182 -22.3182 -22.2087 -22.2087 -22.0878 -22.0877
    -7.5806  -7.3109  -6.7953  -6.7770  -6.4809  -5.6720  -4.9777  -4.8919
    -4.6988  -3.9797   0.5408   0.7169   0.9157   1.0669   1.0905   2.0974
     2.1552   2.4187   2.5255   3.0646   3.0771   3.1868   3.2171   3.2943
     3.6370   3.6840   3.7564   3.9777   3.9915   4.2390   4.2753   4.6439
     5.0035   5.0590   5.6711   5.9150   6.0903   6.1227   6.5473   6.7738
     6.7876   7.4315

          k = 0.0000-0.1290-0.2971 ( 36464 PWs)   bands (ev):

   -44.1685 -44.1685 -22.3182 -22.3182 -22.2087 -22.2087 -22.0878 -22.0878
    -7.4710  -7.4710  -6.7892  -6.7892  -6.1103  -6.1103  -4.9317  -4.9317
    -4.2843  -4.2843   0.7111   0.7111   0.8316   0.8316   1.5196   1.5196
     2.4701   2.4701   2.7201   2.7201   3.1113   3.1113   3.2444   3.2444
     3.7842   3.7842   3.8500   3.8500   4.2250   4.2250   4.4482   4.4482
     4.7511   4.7511   5.9298   5.9298   6.2998   6.2998   6.3903   6.3903
     7.2139   7.2139

          k = 1.0162 0.0000 0.0000 ( 36499 PWs)   bands (ev):

   -44.1658 -44.1658 -22.3044 -22.3044 -22.2781 -22.2781 -22.0788 -22.0788
    -6.6747  -6.6544  -5.7715  -5.7683  -5.5989  -5.5911  -5.5657  -5.5494
    -4.6156  -4.6016   0.0993   0.1479   0.4561   0.4949   1.0039   1.0288
     1.4815   1.6585   2.2216   2.2637   2.3020   2.3177   2.8228   2.8378
     2.9283   2.9755   3.1999   3.2969   3.3376   3.4820   3.5491   3.7096
     3.8747   3.8842   6.2935   6.3277   6.3848   6.4903   6.9078   6.9425
     6.9462   6.9609

          k = 1.0162 0.0000 0.1485 ( 36485 PWs)   bands (ev):

   -44.1658 -44.1658 -22.3044 -22.3044 -22.2781 -22.2781 -22.0788 -22.0788
    -6.6712  -6.6568  -5.7631  -5.7608  -5.6642  -5.6566  -5.4989  -5.4894
    -4.6213  -4.6114   0.0279   0.0441   0.6619   0.6740   1.0558   1.0632
     1.4661   1.5536   1.9114   1.9661   2.3270   2.3418   2.7180   2.8568
     2.9714   3.0168   3.1525   3.2560   3.5028   3.6373   3.6531   3.6777
     4.1600   4.1675   5.7936   5.8375   6.3281   6.4066   6.7980   6.8241
     7.1872   7.1887

          k = 1.0162 0.0000-0.2971 ( 36514 PWs)   bands (ev):

   -44.1658 -44.1658 -22.3044 -22.3044 -22.2781 -22.2781 -22.0788 -22.0788
    -6.6634  -6.6634  -5.7460  -5.7460  -5.7041  -5.7041  -5.4602  -5.4602
    -4.6243  -4.6243  -0.0190  -0.0190   0.8687   0.8687   1.1434   1.1434
     1.4179   1.4179   1.6526   1.6526   2.3261   2.3261   2.7710   2.7710
     3.0142   3.0142   3.2131   3.2131   3.5657   3.5657   3.7403   3.7403
     4.7484   4.7484   5.1432   5.1432   6.3054   6.3054   6.8188   6.8188
     7.2350   7.2350

          k = 1.2703 0.0645 0.0000 ( 36468 PWs)   bands (ev):

   -44.1662 -44.1662 -22.3066 -22.3066 -22.2679 -22.2679 -22.0802 -22.0801
    -6.7886  -6.7185  -6.3479  -6.0768  -5.9820  -5.2796  -5.2635  -5.0374
    -4.6805  -4.6303   0.0099   0.3249   0.6076   1.1561   1.1771   1.1956
     1.4999   1.7067   1.9262   1.9789   2.3968   2.5278   2.6012   2.7355
     2.7917   3.0591   3.2233   3.4207   3.5375   3.5585   3.7901   3.8455
     4.0006   4.4490   5.7381   6.1234   6.2576   6.5297   6.6894   6.8741
     7.0763   7.5488

          k = 1.2703 0.0645 0.1485 ( 36490 PWs)   bands (ev):

   -44.1662 -44.1662 -22.3066 -22.3066 -22.2679 -22.2679 -22.0802 -22.0801
    -6.7757  -6.7255  -6.3394  -6.2016  -5.8125  -5.4002  -5.1919  -5.0616
    -4.6664  -4.6326   0.0873   0.4315   0.5354   0.9224   1.1395   1.2266
     1.5867   1.6207   1.6942   2.2635   2.3196   2.6513   2.6766   2.8523
     2.8689   3.0824   3.2602   3.3396   3.4328   3.5871   3.6984   3.7832
     3.8751   4.8749   5.2011   6.2249   6.4438   6.5552   6.6684   6.9100
     6.9594   7.3504

          k = 1.2703 0.0645-0.2971 ( 36480 PWs)   bands (ev):

   -44.1662 -44.1662 -22.3066 -22.3066 -22.2679 -22.2679 -22.0801 -22.0801
    -6.7476  -6.7476  -6.2994  -6.2994  -5.5924  -5.5924  -5.1214  -5.1214
    -4.6440  -4.6440   0.2910   0.2910   0.7497   0.7497   1.0102   1.0102
     1.5749   1.5749   2.0602   2.0602   2.4962   2.4962   2.8644   2.8644
     2.9662   2.9662   3.2691   3.2691   3.5731   3.5731   3.7213   3.7213
     4.1904   4.1904   5.8729   5.8729   6.3251   6.3251   6.8586   6.8586
     7.1681   7.1681

          k =-0.5081-0.3869 0.0000 ( 36463 PWs)   bands (ev):

   -44.1671 -44.1671 -22.3115 -22.3115 -22.2434 -22.2434 -22.0833 -22.0833
    -7.1589  -6.8818  -6.6297  -6.4661  -6.3903  -5.1710  -5.1637  -4.8028
    -4.7277  -4.4088   0.4749   0.7453   0.8120   1.3718   1.3863   1.5734
     1.6151   1.7756   1.9113   2.2479   2.2678   2.3235   2.6070   3.1691
     3.2563   3.3050   3.3052   3.4315   3.7043   3.7412   3.9511   4.0534
     4.7479   5.2790   5.3458   5.6798   5.9673   6.6237   6.7187   6.7608
     7.1684   7.5172

          k =-0.5081-0.3869 0.1485 ( 36477 PWs)   bands (ev):

   -44.1671 -44.1671 -22.3115 -22.3115 -22.2434 -22.2434 -22.0833 -22.0833
    -7.1267  -6.9293  -6.6343  -6.5909  -6.1557  -5.4815  -4.9730  -4.7678
    -4.7022  -4.4363   0.5045   0.7799   0.9316   1.0897   1.3983   1.4336
     1.5577   1.6702   2.0607   2.0855   2.3544   2.7037   2.9447   3.1447
     3.2659   3.2967   3.3346   3.4606   3.6160   3.7351   3.8013   4.0966
     4.3449   4.6211   5.8752   6.0037   6.2176   6.5513   6.7484   6.7737
     7.0416   7.4830

          k =-0.5081-0.3869-0.2971 ( 36492 PWs)   bands (ev):

   -44.1671 -44.1671 -22.3115 -22.3115 -22.2434 -22.2434 -22.0833 -22.0833
    -7.0376  -7.0376  -6.6347  -6.6347  -5.8288  -5.8288  -4.8606  -4.8606
    -4.5357  -4.5357   0.6444   0.6444   1.0981   1.0981   1.2658   1.2658
     1.5109   1.5109   2.0625   2.0625   2.8642   2.8642   3.2093   3.2093
     3.2361   3.2361   3.3245   3.3245   3.6690   3.6690   3.8687   3.8687
     4.1647   4.1647   6.0992   6.0992   6.6183   6.6183   6.7481   6.7481
     7.0895   7.0895

          k =-0.2541-0.3224 0.0000 ( 36485 PWs)   bands (ev):

   -44.1681 -44.1681 -22.3163 -22.3163 -22.2189 -22.2189 -22.0865 -22.0864
    -7.4806  -7.0876  -6.7593  -6.6694  -6.6648  -5.1982  -5.1825  -4.9119
    -4.8252  -4.0022   0.6368   0.9766   0.9813   1.2129   1.3234   1.5500
     2.0053   2.1917   2.2836   2.3783   2.5115   3.1334   3.2318   3.2990
     3.5039   3.7044   3.7744   3.8479   4.0134   4.0264   4.0918   4.2135
     4.3873   4.6762   5.7422   6.0393   6.3858   6.4933   6.6828   6.8770
     6.9707   7.0140

          k =-0.2541-0.3224 0.1485 ( 36445 PWs)   bands (ev):

   -44.1681 -44.1681 -22.3163 -22.3163 -22.2189 -22.2189 -22.0865 -22.0864
    -7.4435  -7.1831  -6.7741  -6.7572  -6.4007  -5.6122  -4.9823  -4.8505
    -4.6889  -4.0905   0.6392   0.9387   1.0991   1.1090   1.2026   1.6877
     1.8946   2.2535   2.3998   2.5212   2.6562   2.9292   3.2191   3.2832
     3.3182   3.4967   3.8036   3.8731   3.9436   4.0317   4.0778   4.1396
     4.6875   5.0585   5.7671   5.8033   6.1777   6.2866   6.6904   6.7223
     7.1785   7.2467

          k =-0.2541-0.3224-0.2971 ( 36442 PWs)   bands (ev):

   -44.1681 -44.1681 -22.3163 -22.3163 -22.2189 -22.2189 -22.0865 -22.0865
    -7.3365  -7.3365  -6.7746  -6.7746  -6.0317  -6.0317  -4.9117  -4.9117
    -4.3378  -4.3378   0.7414   0.7414   1.1229   1.1229   1.3718   1.3718
     2.2293   2.2293   2.5131   2.5131   2.8171   2.8171   3.1575   3.1575
     3.2852   3.2852   3.7981   3.7981   3.9810   3.9810   4.1213   4.1213
     5.2259   5.2259   5.6634   5.6634   5.9915   5.9915   6.6921   6.6921
     7.3709   7.3709

          k = 0.0000-0.2579 0.0000 ( 36445 PWs)   bands (ev):

   -44.1685 -44.1685 -22.3182 -22.3182 -22.2087 -22.2087 -22.0878 -22.0877
    -7.6023  -7.1855  -6.7968  -6.7686  -6.7097  -5.2251  -5.2005  -4.9524
    -4.8668  -3.8676   0.5681   0.7978   0.8339   1.0627   1.5403   1.6777
     2.4089   2.5554   2.5670   3.0345   3.0524   3.1672   3.1717   3.2358
     3.2586   3.4717   3.7863   4.0079   4.0332   4.0699   4.1387   4.6239
     5.2988   5.4271   5.5451   5.6098   5.9219   6.1915   6.6202   6.6290
     6.9324   7.2602

          k = 0.0000-0.2579 0.1485 ( 36452 PWs)   bands (ev):

   -44.1685 -44.1685 -22.3182 -22.3182 -22.2087 -22.2087 -22.0878 -22.0877
    -7.5642  -7.2928  -6.8180  -6.7967  -6.4845  -5.6693  -4.9991  -4.8884
    -4.6907  -3.9795   0.5790   0.8278   0.9855   1.0902   1.1147   2.1209
     2.1870   2.4298   2.5418   3.0467   3.0617   3.1047   3.1508   3.1746
     3.6192   3.6599   3.7006   3.9352   3.9881   4.1208   4.1684   4.6492
     5.0025   5.0345   5.6930   5.9195   6.1036   6.1187   6.5178   6.7763
     6.8754   7.2494

          k = 0.0000-0.2579-0.2971 ( 36454 PWs)   bands (ev):

   -44.1685 -44.1685 -22.3182 -22.3182 -22.2087 -22.2087 -22.0878 -22.0878
    -7.4540  -7.4540  -6.8123  -6.8123  -6.1083  -6.1083  -4.9404  -4.9404
    -4.2804  -4.2804   0.7481   0.7481   0.9184   0.9184   1.5453   1.5453
     2.4836   2.4836   2.7340   2.7340   3.0905   3.0905   3.0968   3.0968
     3.7707   3.7707   3.8393   3.8393   4.0891   4.0891   4.4423   4.4423
     4.7550   4.7550   5.8896   5.8896   6.3325   6.3325   6.3931   6.3931
     7.2094   7.2094

          k = 1.5243 0.0000 0.0000 ( 36439 PWs)   bands (ev):

   -44.1671 -44.1671 -22.3115 -22.3115 -22.2434 -22.2434 -22.0833 -22.0833
    -7.1505  -6.8795  -6.6368  -6.4734  -6.3887  -5.1700  -5.1678  -4.8034
    -4.7260  -4.4092   0.4795   0.7387   0.8060   1.3745   1.5000   1.5410
     1.6082   1.7955   1.8923   2.2648   2.2676   2.3289   2.6159   3.1123
     3.2464   3.2766   3.3158   3.4946   3.6414   3.6923   3.9467   4.0659
     4.7434   5.2757   5.3161   5.6661   5.9918   6.5876   6.7853   6.7941
     7.1235   7.5155

          k = 1.5243 0.0000 0.1485 ( 36476 PWs)   bands (ev):

   -44.1671 -44.1671 -22.3115 -22.3115 -22.2434 -22.2434 -22.0833 -22.0833
    -7.1182  -6.9238  -6.6418  -6.6006  -6.1546  -5.4804  -4.9788  -4.7681
    -4.7001  -4.4357   0.5086   0.7782   0.9264   1.0879   1.4309   1.5150
     1.5171   1.6713   2.0662   2.0970   2.3494   2.7190   2.9556   3.0884
     3.2470   3.3018   3.3139   3.5403   3.5614   3.6977   3.7890   4.1027
     4.3067   4.6180   5.8518   6.0077   6.2174   6.5243   6.7956   6.8307
     6.9943   7.4949

          k = 1.5243 0.0000-0.2971 ( 36508 PWs)   bands (ev):

   -44.1671 -44.1671 -22.3115 -22.3115 -22.2434 -22.2434 -22.0833 -22.0833
    -7.0296  -7.0296  -6.6446  -6.6446  -5.8272  -5.8272  -4.8646  -4.8646
    -4.5335  -4.5335   0.6486   0.6486   1.0953   1.0953   1.2636   1.2636
     1.5520   1.5520   2.0613   2.0613   2.8720   2.8720   3.1483   3.1483
     3.2772   3.2772   3.3366   3.3366   3.6395   3.6395   3.8676   3.8676
     4.1352   4.1352   6.0836   6.0836   6.6137   6.6137   6.7686   6.7686
     7.0948   7.0948

          k =-0.2541-0.4514 0.0000 ( 36444 PWs)   bands (ev):

   -44.1681 -44.1681 -22.3163 -22.3163 -22.2189 -22.2189 -22.0865 -22.0864
    -7.4666  -7.0742  -6.7720  -6.6898  -6.6667  -5.1961  -5.1906  -4.9133
    -4.8218  -4.0032   0.6439   0.9879   1.0882   1.2612   1.4143   1.5478
     2.0436   2.1791   2.2793   2.3087   2.4267   3.1136   3.1813   3.2463
     3.4986   3.7161   3.7362   3.8249   3.9668   4.0172   4.0647   4.1877
     4.4367   4.5957   5.8029   6.0448   6.3970   6.4433   6.7301   6.9067
     6.9078   7.0071

          k =-0.2541-0.4514 0.1485 ( 36461 PWs)   bands (ev):

   -44.1681 -44.1681 -22.3163 -22.3163 -22.2189 -22.2189 -22.0865 -22.0864
    -7.4293  -7.1681  -6.7895  -6.7777  -6.4014  -5.6101  -4.9958  -4.8501
    -4.6832  -4.0902   0.6424   0.9594   1.1165   1.2423   1.2886   1.7076
     1.9067   2.2278   2.2978   2.4656   2.6780   2.9234   3.1665   3.1815
     3.3503   3.4879   3.8205   3.8316   3.9391   3.9990   4.0494   4.0890
     4.6956   5.0249   5.7676   5.8116   6.1877   6.2294   6.7490   6.7640
     7.1424   7.2430

          k =-0.2541-0.4514-0.2971 ( 36490 PWs)   bands (ev):

   -44.1681 -44.1681 -22.3163 -22.3163 -22.2189 -22.2189 -22.0865 -22.0865
    -7.3218  -7.3218  -6.7938  -6.7938  -6.0296  -6.0296  -4.9185  -4.9185
    -4.3346  -4.3346   0.7412   0.7412   1.2496   1.2496   1.3892   1.3892
     2.2046   2.2046   2.4379   2.4379   2.8287   2.8287   3.1528   3.1528
     3.2281   3.2281   3.7854   3.7854   3.9934   3.9934   4.0631   4.0631
     5.2158   5.2158   5.6448   5.6448   5.9631   5.9631   6.7565   6.7565
     7.3486   7.3487

          k = 0.0000-0.3869 0.0000 ( 36477 PWs)   bands (ev):

   -44.1685 -44.1685 -22.3182 -22.3182 -22.2087 -22.2087 -22.0878 -22.0877
    -7.5850  -7.1656  -6.8159  -6.7651  -6.7429  -5.2226  -5.2109  -4.9557
    -4.8614  -3.8693   0.5916   0.8497   0.9605   1.1313   1.6054   1.6990
     2.4196   2.5165   2.5858   2.8791   3.0268   3.0357   3.0930   3.2526
     3.3020   3.4456   3.8216   3.8879   3.9930   4.0051   4.0328   4.6294
     5.2840   5.3849   5.5621   5.6870   5.9511   6.2216   6.5154   6.7027
     6.9347   7.2973

          k = 0.0000-0.3869 0.1485 ( 36452 PWs)   bands (ev):

   -44.1685 -44.1685 -22.3182 -22.3182 -22.2087 -22.2087 -22.0878 -22.0877
    -7.5467  -7.2732  -6.8410  -6.8192  -6.4875  -5.6666  -5.0177  -4.8872
    -4.6831  -3.9792   0.5894   0.9506   1.0825   1.1067   1.1960   2.1500
     2.2059   2.4415   2.5591   2.8251   2.8567   3.0455   3.1619   3.2520
     3.6014   3.6360   3.6996   3.9116   3.9845   4.0031   4.0643   4.6547
     5.0013   5.0219   5.7244   5.9246   6.0844   6.1224   6.4847   6.7788
     6.9385   7.2068

          k = 0.0000-0.3869-0.2971 ( 36454 PWs)   bands (ev):

   -44.1685 -44.1685 -22.3182 -22.3182 -22.2087 -22.2087 -22.0878 -22.0878
    -7.4358  -7.4358  -6.8368  -6.8368  -6.1061  -6.1061  -4.9492  -4.9492
    -4.2765  -4.2765   0.7453   0.7453   1.0765   1.0765   1.5738   1.5738
     2.4978   2.4978   2.6620   2.6620   2.9654   2.9654   3.0815   3.0815
     3.7736   3.7736   3.8287   3.8287   3.9894   3.9894   4.4305   4.4305
     4.7590   4.7590   5.8504   5.8504   6.3504   6.3504   6.3962   6.3962
     7.1830   7.1831

          k =-2.0325 0.0000 0.0000 ( 36452 PWs)   bands (ev):

   -44.1685 -44.1685 -22.3182 -22.3182 -22.2087 -22.2087 -22.0878 -22.0877
    -7.5774  -7.1570  -6.8215  -6.7636  -6.7596  -5.2215  -5.2153  -4.9563
    -4.8599  -3.8699   0.5941   0.8564   1.0637   1.1461   1.6472   1.7073
     2.4242   2.4846   2.5940   2.7340   2.9497   3.0285   3.1250   3.2502
     3.3897   3.4346   3.7804   3.8546   3.9435   3.9761   4.0326   4.6318
     5.2779   5.3730   5.5692   5.7240   5.9640   6.2302   6.4657   6.7278
     6.9355   7.2590

          k =-2.0325 0.0000 0.1485 ( 36456 PWs)   bands (ev):

   -44.1685 -44.1685 -22.3182 -22.3182 -22.2087 -22.2087 -22.0878 -22.0877
    -7.5390  -7.2646  -6.8503  -6.8299  -6.4885  -5.6655  -5.0249  -4.8871
    -4.6801  -3.9792   0.5884   0.9977   1.0934   1.1513   1.2598   2.1615
     2.2096   2.4465   2.5667   2.6875   2.7652   3.0384   3.1564   3.3179
     3.5941   3.6141   3.7095   3.8797   3.9633   3.9830   4.0306   4.6571
     5.0008   5.0192   5.7411   5.9269   6.0644   6.1279   6.4710   6.7798
     6.9589   7.1903

          k =-2.0325 0.0000-0.2971 ( 36460 PWs)   bands (ev):

   -44.1685 -44.1685 -22.3182 -22.3182 -22.2087 -22.2087 -22.0878 -22.0878
    -7.4278  -7.4278  -6.8474  -6.8474  -6.1052  -6.1052  -4.9528  -4.9528
    -4.2749  -4.2749   0.7413   0.7413   1.1597   1.1597   1.5877   1.5877
     2.5039   2.5039   2.5739   2.5739   2.9552   2.9552   3.0750   3.0750
     3.7663   3.7663   3.8242   3.8242   3.9617   3.9617   4.4262   4.4262
     4.7607   4.7607   5.8333   5.8333   6.3553   6.3553   6.3976   6.3976
     7.1695   7.1695

     the Fermi energy is     5.2602 ev

!    total energy              =   -4240.92581856 Ry

     total all-electron energy =   -150287.619513 Ry
     estimated scf accuracy    <          5.9E-11 Ry
     smearing contrib. (-TS)   =      -0.00002722 Ry
     internal energy E=F+TS    =   -4240.92579134 Ry

     The total energy is F=E-TS. E is the sum of the following terms:
     one-electron contribution =    -164.14372657 Ry
     hartree contribution      =     115.52498207 Ry
     xc contribution           =    -201.39550296 Ry
     ewald contribution        =    -223.40377788 Ry
     one-center paw contrib.   =   -3767.50776600 Ry

     convergence has been achieved in  18 iterations

     Forces acting on atoms (cartesian axes, Ry/au):

     atom    1 type  1   force =    -0.00000000   -0.02837264    0.00000000
     atom    2 type  1   force =     0.00000000    0.02837264    0.00000000
     atom    3 type  2   force =     0.00000000    0.00218346    0.00000000
     atom    4 type  2   force =     0.00000000   -0.00218346    0.00000000
     atom    5 type  2   force =     0.00000000    0.00626310   -0.00100126
     atom    6 type  2   force =     0.00000000   -0.00626310    0.00100126
     atom    7 type  2   force =     0.00000000    0.00626310    0.00100126
     atom    8 type  2   force =    -0.00000000   -0.00626310   -0.00100126
     atom    9 type  2   force =     0.00000000    0.01974200    0.01184018
     atom   10 type  2   force =     0.00000000   -0.01974200   -0.01184018
     atom   11 type  2   force =     0.00000000    0.01974200   -0.01184018
     atom   12 type  2   force =     0.00000000   -0.01974200    0.01184018

     Total force =     0.062452     Total SCF correction =     0.000010


     Computing stress (Cartesian axis) and pressure

          total   stress  (Ry/bohr**3)                   (kbar)     P=       -5.18
  -0.00002020   0.00000000   0.00000000           -2.97        0.00        0.00
   0.00000000  -0.00003323   0.00000000            0.00       -4.89        0.00
   0.00000000   0.00000000  -0.00005214            0.00        0.00       -7.67

 
     init_run     :     35.53s CPU     36.21s WALL (       1 calls)
     electrons    :   1772.15s CPU   1788.99s WALL (       1 calls)
     forces       :      7.66s CPU      7.95s WALL (       1 calls)
     stress       :     54.00s CPU     54.66s WALL (       1 calls)

     Called by init_run:
     wfcinit      :     30.68s CPU     30.94s WALL (       1 calls)
     potinit      :      1.49s CPU      1.56s WALL (       1 calls)
     hinit0       :      1.56s CPU      1.63s WALL (       1 calls)

     Called by electrons:
     c_bands      :   1446.84s CPU   1453.38s WALL (      19 calls)
     sum_band     :    290.07s CPU    295.99s WALL (      19 calls)
     v_of_rho     :      9.14s CPU      9.80s WALL (      19 calls)
     newd         :     18.45s CPU     22.37s WALL (      19 calls)
     PAW_pot      :      7.13s CPU      7.14s WALL (      19 calls)
     mix_rho      :      1.62s CPU      1.68s WALL (      19 calls)

     Called by c_bands:
     init_us_2    :     14.05s CPU     14.13s WALL (    2583 calls)
     cegterg      :   1366.10s CPU   1371.85s WALL (    1197 calls)

     Called by *egterg:
     cdiaghg      :     27.92s CPU     28.05s WALL (    8115 calls)
     h_psi        :   1182.66s CPU   1188.22s WALL (    8241 calls)
     s_psi        :     50.84s CPU     50.90s WALL (    8241 calls)
     g_psi        :      2.24s CPU      2.25s WALL (    6981 calls)

     Called by h_psi:
     h_psi:calbec :     44.39s CPU     44.48s WALL (    8241 calls)
     vloc_psi     :   1084.09s CPU   1089.40s WALL (    8241 calls)
     add_vuspsi   :     50.18s CPU     50.25s WALL (    8241 calls)

     General routines
     calbec       :     60.16s CPU     60.29s WALL (    9753 calls)
     fft          :      8.33s CPU      8.60s WALL (     271 calls)
     ffts         :      0.20s CPU      0.20s WALL (      38 calls)
     fftw         :   1091.64s CPU   1096.93s WALL (  433424 calls)
     interpolate  :      0.66s CPU      0.67s WALL (      19 calls)
 
     Parallel routines
     fft_scatt_xy :    256.50s CPU    257.88s WALL (  433733 calls)
     fft_scatt_yz :    314.74s CPU    316.36s WALL (  433733 calls)
 
     PWSCF        :  31m 9.64s CPU  31m28.61s WALL

 
   This run was terminated on:  15:32:20  19Nov2021            

=------------------------------------------------------------------------------=
   JOB DONE.
=------------------------------------------------------------------------------=
