
     Program PWSCF v.6.7MaX starts on 19Nov2021 at 14:46:23 

     This program is part of the open-source Quantum ESPRESSO suite
     for quantum simulation of materials; please cite
         "P. Giannozzi et al., J. Phys.:Condens. Matter 21 395502 (2009);
         "P. Giannozzi et al., J. Phys.:Condens. Matter 29 465901 (2017);
          URL http://www.quantum-espresso.org", 
     in publications or presentations arising from this work. More details at
     http://www.quantum-espresso.org/quote

     Parallel version (MPI), running on    10 processors

     MPI processes distributed on     1 nodes
     R & G space division:  proc/nbgrp/npool/nimage =      10
     Waiting for input...
     Reading input from standard input

     Current dimensions of program PWSCF are:
     Max number of different atomic species (ntypx) = 10
     Max number of k-points (npk) =  40000
     Max angular momentum in pseudopotentials (lmaxx) =  3
     file Zr.pbe-spn-kjpaw_psl.1.0.0.UPF: wavefunction(s)  4S 4P renormalized
     file Te.pbe-n-kjpaw_psl.1.0.0.UPF: wavefunction(s)  5S 5P renormalized

     Subspace diagonalization in iterative solution of the eigenvalue problem:
     a serial algorithm will be used

     Message from routine setup:
     using ibrav=0 with symmetry is DISCOURAGED, use correct ibrav instead
 
     Parallelization info
     --------------------
     sticks:   dense  smooth     PW     G-vecs:    dense   smooth      PW
     Min         734     293     87               115340    29174    4753
     Max         735     295     88               115345    29176    4760
     Sum        7345    2937    873              1153415   291749   47557
 


     bravais-lattice index     =            0
     lattice parameter (alat)  =      15.5510  a.u.
     unit-cell volume          =    3018.5011 (a.u.)^3
     number of atoms/cell      =           12
     number of atomic types    =            2
     number of electrons       =        84.00
     number of Kohn-Sham states=           50
     kinetic-energy cutoff     =      80.0000  Ry
     charge density cutoff     =     800.0000  Ry
     scf convergence threshold =      1.0E-10
     mixing beta               =       0.7000
     number of iterations used =            8  plain     mixing
     Exchange-correlation= SLA  PW   PBX  PBC
                           (   1   4   3   4   0   0   0)

     celldm(1)=  15.551040  celldm(2)=   0.000000  celldm(3)=   0.000000
     celldm(4)=   0.000000  celldm(5)=   0.000000  celldm(6)=   0.000000

     crystal axes: (cart. coord. in units of alat)
               a(1) = (   0.246007  -0.969268   0.000000 )  
               a(2) = (   0.246007   0.969268   0.000000 )  
               a(3) = (   0.000000   0.000000   1.683031 )  

     reciprocal axes: (cart. coord. in units 2 pi/alat)
               b(1) = (  2.032465 -0.515853  0.000000 )  
               b(2) = (  2.032465  0.515853  0.000000 )  
               b(3) = (  0.000000  0.000000  0.594166 )  


     PseudoPot. # 1 for Zr read from file:
     pseudo/Zr.pbe-spn-kjpaw_psl.1.0.0.UPF
     MD5 check sum: 02112c41713a0468aff2bb39ef194e36
     Pseudo is Projector augmented-wave + core cor, Zval = 12.0
     Generated using &quot;atomic&quot; code by A. Dal Corso  v.6.2.2
     Shape of augmentation charge: PSQ
     Using radial grid of 1225 points,  6 beta functions with: 
                l(1) =   0
                l(2) =   0
                l(3) =   1
                l(4) =   1
                l(5) =   2
                l(6) =   2
     Q(r) pseudized with 0 coefficients 


     PseudoPot. # 2 for Te read from file:
     pseudo/Te.pbe-n-kjpaw_psl.1.0.0.UPF
     MD5 check sum: 66247bff2bd9dbf220fbb0bf5ab56e9d
     Pseudo is Projector augmented-wave + core cor, Zval =  6.0
     Generated using &quot;atomic&quot; code by A. Dal Corso  v.6.3
     Shape of augmentation charge: PSQ
     Using radial grid of 1245 points,  6 beta functions with: 
                l(1) =   0
                l(2) =   0
                l(3) =   1
                l(4) =   1
                l(5) =   2
                l(6) =   2
     Q(r) pseudized with 0 coefficients 


     atomic species   valence    mass     pseudopotential
        Zr            12.00    91.22000     Zr( 1.00)
        Te             6.00   127.60000     Te( 1.00)

      8 Sym. Ops., with inversion, found ( 4 have fractional translation)



   Cartesian axes

     site n.     atom                  positions (alat units)
         1           Zr  tau(   1) = (   0.0000000   0.6095481   0.4207578  )
         2           Zr  tau(   2) = (   0.2460067   0.3597200   1.2622733  )
         3           Te  tau(   3) = (   0.2460067   0.3343276   0.4207578  )
         4           Te  tau(   4) = (   0.0000000   0.6349405   1.2622733  )
         5           Te  tau(   5) = (   0.2460067   0.8080320   0.2508389  )
         6           Te  tau(   6) = (   0.0000000   0.1612361   1.4321921  )
         7           Te  tau(   7) = (   0.2460067   0.8080320   0.5906766  )
         8           Te  tau(   8) = (   0.0000000   0.1612361   1.0923545  )
         9           Te  tau(   9) = (   0.0000000   0.4079885   0.7242961  )
        10           Te  tau(  10) = (   0.2460067   0.5612796   0.9587350  )
        11           Te  tau(  11) = (   0.0000000   0.4079885   0.1172194  )
        12           Te  tau(  12) = (   0.2460067   0.5612796   1.5658116  )

     number of k points=    63  Methfessel-Paxton smearing, width (Ry)=  0.0030
                       cart. coord. in units 2pi/alat
        k(    1) = (   0.0000000   0.0000000   0.0000000), wk =   0.0078125
        k(    2) = (   0.0000000   0.0000000   0.1485415), wk =   0.0156250
        k(    3) = (   0.0000000   0.0000000  -0.2970830), wk =   0.0078125
        k(    4) = (   0.2540581   0.0644816   0.0000000), wk =   0.0312500
        k(    5) = (   0.2540581   0.0644816   0.1485415), wk =   0.0625000
        k(    6) = (   0.2540581   0.0644816  -0.2970830), wk =   0.0312500
        k(    7) = (   0.5081162   0.1289633   0.0000000), wk =   0.0312500
        k(    8) = (   0.5081162   0.1289633   0.1485415), wk =   0.0625000
        k(    9) = (   0.5081162   0.1289633  -0.2970830), wk =   0.0312500
        k(   10) = (   0.7621743   0.1934449   0.0000000), wk =   0.0312500
        k(   11) = (   0.7621743   0.1934449   0.1485415), wk =   0.0625000
        k(   12) = (   0.7621743   0.1934449  -0.2970830), wk =   0.0312500
        k(   13) = (  -1.0162324  -0.2579266   0.0000000), wk =   0.0156250
        k(   14) = (  -1.0162324  -0.2579266   0.1485415), wk =   0.0312500
        k(   15) = (  -1.0162324  -0.2579266  -0.2970830), wk =   0.0156250
        k(   16) = (   0.5081162   0.0000000   0.0000000), wk =   0.0156250
        k(   17) = (   0.5081162   0.0000000   0.1485415), wk =   0.0312500
        k(   18) = (   0.5081162   0.0000000  -0.2970830), wk =   0.0156250
        k(   19) = (   0.7621743   0.0644816   0.0000000), wk =   0.0312500
        k(   20) = (   0.7621743   0.0644816   0.1485415), wk =   0.0625000
        k(   21) = (   0.7621743   0.0644816  -0.2970830), wk =   0.0312500
        k(   22) = (   1.0162324   0.1289633   0.0000000), wk =   0.0312500
        k(   23) = (   1.0162324   0.1289633   0.1485415), wk =   0.0625000
        k(   24) = (   1.0162324   0.1289633  -0.2970830), wk =   0.0312500
        k(   25) = (  -0.7621743  -0.3224082   0.0000000), wk =   0.0312500
        k(   26) = (  -0.7621743  -0.3224082   0.1485415), wk =   0.0625000
        k(   27) = (  -0.7621743  -0.3224082  -0.2970830), wk =   0.0312500
        k(   28) = (  -0.5081162  -0.2579266   0.0000000), wk =   0.0312500
        k(   29) = (  -0.5081162  -0.2579266   0.1485415), wk =   0.0625000
        k(   30) = (  -0.5081162  -0.2579266  -0.2970830), wk =   0.0312500
        k(   31) = (  -0.2540581  -0.1934449   0.0000000), wk =   0.0312500
        k(   32) = (  -0.2540581  -0.1934449   0.1485415), wk =   0.0625000
        k(   33) = (  -0.2540581  -0.1934449  -0.2970830), wk =   0.0312500
        k(   34) = (   0.0000000  -0.1289633   0.0000000), wk =   0.0156250
        k(   35) = (   0.0000000  -0.1289633   0.1485415), wk =   0.0312500
        k(   36) = (   0.0000000  -0.1289633  -0.2970830), wk =   0.0156250
        k(   37) = (   1.0162324   0.0000000   0.0000000), wk =   0.0156250
        k(   38) = (   1.0162324   0.0000000   0.1485415), wk =   0.0312500
        k(   39) = (   1.0162324   0.0000000  -0.2970830), wk =   0.0156250
        k(   40) = (   1.2702905   0.0644816   0.0000000), wk =   0.0312500
        k(   41) = (   1.2702905   0.0644816   0.1485415), wk =   0.0625000
        k(   42) = (   1.2702905   0.0644816  -0.2970830), wk =   0.0312500
        k(   43) = (  -0.5081162  -0.3868899   0.0000000), wk =   0.0312500
        k(   44) = (  -0.5081162  -0.3868899   0.1485415), wk =   0.0625000
        k(   45) = (  -0.5081162  -0.3868899  -0.2970830), wk =   0.0312500
        k(   46) = (  -0.2540581  -0.3224082   0.0000000), wk =   0.0312500
        k(   47) = (  -0.2540581  -0.3224082   0.1485415), wk =   0.0625000
        k(   48) = (  -0.2540581  -0.3224082  -0.2970830), wk =   0.0312500
        k(   49) = (   0.0000000  -0.2579266   0.0000000), wk =   0.0156250
        k(   50) = (   0.0000000  -0.2579266   0.1485415), wk =   0.0312500
        k(   51) = (   0.0000000  -0.2579266  -0.2970830), wk =   0.0156250
        k(   52) = (   1.5243485   0.0000000   0.0000000), wk =   0.0156250
        k(   53) = (   1.5243485   0.0000000   0.1485415), wk =   0.0312500
        k(   54) = (   1.5243485   0.0000000  -0.2970830), wk =   0.0156250
        k(   55) = (  -0.2540581  -0.4513715   0.0000000), wk =   0.0312500
        k(   56) = (  -0.2540581  -0.4513715   0.1485415), wk =   0.0625000
        k(   57) = (  -0.2540581  -0.4513715  -0.2970830), wk =   0.0312500
        k(   58) = (   0.0000000  -0.3868899   0.0000000), wk =   0.0156250
        k(   59) = (   0.0000000  -0.3868899   0.1485415), wk =   0.0312500
        k(   60) = (   0.0000000  -0.3868899  -0.2970830), wk =   0.0156250
        k(   61) = (  -2.0324647   0.0000000   0.0000000), wk =   0.0078125
        k(   62) = (  -2.0324647   0.0000000   0.1485415), wk =   0.0156250
        k(   63) = (  -2.0324647   0.0000000  -0.2970830), wk =   0.0078125

     Dense  grid:  1153415 G-vectors     FFT dimensions: ( 144, 144, 240)

     Smooth grid:   291749 G-vectors     FFT dimensions: (  90,  90, 150)

     Estimated max dynamical RAM per process >     657.19 MB

     Estimated total dynamical RAM >       6.42 GB

     Initial potential from superposition of free atoms

     starting charge   83.99353, renormalised to   84.00000
     Starting wfcs are   66 randomized atomic wfcs
     Checking if some PAW data can be deallocated... 

     total cpu time spent up to now is       42.2 secs

     Self-consistent Calculation

     iteration #  1     ecut=    80.00 Ry     beta= 0.70
     Davidson diagonalization with overlap
     ethr =  1.00E-02,  avg # of iterations =  2.0

     Threshold (ethr) on eigenvalues was too large:
     Diagonalizing with lowered threshold

     Davidson diagonalization with overlap
     ethr =  3.89E-04,  avg # of iterations =  4.0

     total cpu time spent up to now is      203.3 secs

     total energy              =   -4240.72368859 Ry
     estimated scf accuracy    <       0.42945303 Ry

     iteration #  2     ecut=    80.00 Ry     beta= 0.70
     Davidson diagonalization with overlap
     ethr =  5.11E-04,  avg # of iterations =  7.7

     total cpu time spent up to now is      313.4 secs

     total energy              =   -4240.62826360 Ry
     estimated scf accuracy    <       2.15300828 Ry

     iteration #  3     ecut=    80.00 Ry     beta= 0.70
     Davidson diagonalization with overlap
     ethr =  5.11E-04,  avg # of iterations =  5.2

     total cpu time spent up to now is      408.6 secs

     total energy              =   -4240.92548327 Ry
     estimated scf accuracy    <       0.01714518 Ry

     iteration #  4     ecut=    80.00 Ry     beta= 0.70
     Davidson diagonalization with overlap
     c_bands:  1 eigenvalues not converged
     c_bands:  1 eigenvalues not converged
     c_bands:  1 eigenvalues not converged
     c_bands:  1 eigenvalues not converged
     c_bands:  2 eigenvalues not converged
     c_bands:  1 eigenvalues not converged
     c_bands:  2 eigenvalues not converged
     c_bands:  1 eigenvalues not converged
     c_bands:  1 eigenvalues not converged
     c_bands:  1 eigenvalues not converged
     c_bands:  1 eigenvalues not converged
     c_bands:  1 eigenvalues not converged
     c_bands:  2 eigenvalues not converged
     c_bands:  1 eigenvalues not converged
     ethr =  2.04E-05,  avg # of iterations = 17.4

     total cpu time spent up to now is      577.3 secs

     total energy              =   -4240.94069081 Ry
     estimated scf accuracy    <       0.09248482 Ry

     iteration #  5     ecut=    80.00 Ry     beta= 0.70
     Davidson diagonalization with overlap
     ethr =  2.04E-05,  avg # of iterations =  5.9

     total cpu time spent up to now is      664.3 secs

     total energy              =   -4240.94343252 Ry
     estimated scf accuracy    <       0.01854371 Ry

     iteration #  6     ecut=    80.00 Ry     beta= 0.70
     Davidson diagonalization with overlap
     ethr =  2.04E-05,  avg # of iterations =  2.8

     total cpu time spent up to now is      738.0 secs

     total energy              =   -4240.94477877 Ry
     estimated scf accuracy    <       0.00206542 Ry

     iteration #  7     ecut=    80.00 Ry     beta= 0.70
     Davidson diagonalization with overlap
     c_bands:  1 eigenvalues not converged
     c_bands:  1 eigenvalues not converged
     c_bands:  1 eigenvalues not converged
     c_bands:  1 eigenvalues not converged
     c_bands:  1 eigenvalues not converged
     c_bands:  1 eigenvalues not converged
     c_bands:  1 eigenvalues not converged
     c_bands:  1 eigenvalues not converged
     c_bands:  1 eigenvalues not converged
     c_bands:  1 eigenvalues not converged
     c_bands:  1 eigenvalues not converged
     ethr =  2.46E-06,  avg # of iterations = 14.8

     total cpu time spent up to now is      871.5 secs

     total energy              =   -4240.94602946 Ry
     estimated scf accuracy    <       0.00263791 Ry

     iteration #  8     ecut=    80.00 Ry     beta= 0.70
     Davidson diagonalization with overlap
     c_bands:  1 eigenvalues not converged
     ethr =  2.46E-06,  avg # of iterations =  3.1

     total cpu time spent up to now is      941.8 secs

     total energy              =   -4240.94602952 Ry
     estimated scf accuracy    <       0.00054589 Ry

     iteration #  9     ecut=    80.00 Ry     beta= 0.70
     Davidson diagonalization with overlap
     c_bands:  1 eigenvalues not converged
     ethr =  6.50E-07,  avg # of iterations =  6.5

     total cpu time spent up to now is     1026.9 secs

     total energy              =   -4240.94615516 Ry
     estimated scf accuracy    <       0.00000379 Ry

     iteration # 10     ecut=    80.00 Ry     beta= 0.70
     Davidson diagonalization with overlap
     ethr =  4.51E-09,  avg # of iterations = 11.3

     total cpu time spent up to now is     1177.5 secs

     total energy              =   -4240.94617030 Ry
     estimated scf accuracy    <       0.00002188 Ry

     iteration # 11     ecut=    80.00 Ry     beta= 0.70
     Davidson diagonalization with overlap
     ethr =  4.51E-09,  avg # of iterations =  4.7

     total cpu time spent up to now is     1269.1 secs

     total energy              =   -4240.94617313 Ry
     estimated scf accuracy    <       0.00000020 Ry

     iteration # 12     ecut=    80.00 Ry     beta= 0.70
     Davidson diagonalization with overlap
     ethr =  2.43E-10,  avg # of iterations =  7.2

     total cpu time spent up to now is     1373.9 secs

     total energy              =   -4240.94617328 Ry
     estimated scf accuracy    <       0.00000005 Ry

     iteration # 13     ecut=    80.00 Ry     beta= 0.70
     Davidson diagonalization with overlap
     ethr =  6.36E-11,  avg # of iterations =  2.6

     total cpu time spent up to now is     1445.0 secs

     total energy              =   -4240.94617329 Ry
     estimated scf accuracy    <          7.6E-09 Ry

     iteration # 14     ecut=    80.00 Ry     beta= 0.70
     Davidson diagonalization with overlap
     ethr =  9.03E-12,  avg # of iterations =  7.5

     total cpu time spent up to now is     1549.4 secs

     total energy              =   -4240.94617329 Ry
     estimated scf accuracy    <          2.9E-09 Ry

     iteration # 15     ecut=    80.00 Ry     beta= 0.70
     Davidson diagonalization with overlap
     ethr =  3.45E-12,  avg # of iterations =  4.7

     total cpu time spent up to now is     1628.5 secs

     End of self-consistent calculation

          k = 0.0000 0.0000 0.0000 ( 36359 PWs)   bands (ev):

   -44.1482 -44.1482 -22.2863 -22.2863 -22.1852 -22.1852 -22.0711 -22.0710
    -7.6964  -7.1508  -7.1343  -6.7973  -6.4772  -5.3563  -5.0644  -4.8859
    -4.8319  -3.8570   0.4171   0.7113   0.7618   1.0778   1.5040   1.5547
     2.4045   2.4369   2.6609   2.9439   3.0062   3.0133   3.1449   3.4888
     3.5977   3.6685   3.8860   4.0510   4.1513   4.3035   4.3243   4.6352
     5.0374   5.5459   5.5967   5.6807   5.8457   6.0072   6.3296   6.8193
     6.9463   7.5001

          k = 0.0000 0.0000 0.1485 ( 36415 PWs)   bands (ev):

   -44.1482 -44.1482 -22.2863 -22.2863 -22.1852 -22.1852 -22.0711 -22.0710
    -7.6575  -7.3632  -6.9494  -6.8086  -6.3783  -5.6919  -4.8995  -4.8425
    -4.6962  -3.9742   0.4669   0.7489   0.9105   1.0445   1.0542   1.9896
     2.1004   2.4318   2.6063   2.9619   3.0012   3.1095   3.3643   3.3685
     3.6721   3.7525   3.8729   4.0454   4.0999   4.3233   4.3386   4.6470
     4.8736   5.0461   5.7434   5.9408   6.0059   6.0267   6.6091   6.6533
     6.7766   7.2520

          k = 0.0000 0.0000-0.2971 ( 36410 PWs)   bands (ev):

   -44.1482 -44.1482 -22.2863 -22.2863 -22.1852 -22.1852 -22.0710 -22.0710
    -7.5434  -7.5434  -6.8488  -6.8488  -6.0905  -6.0905  -4.8685  -4.8685
    -4.2846  -4.2846   0.6616   0.6616   0.8765   0.8765   1.4150   1.4150
     2.5075   2.5075   2.6832   2.6832   2.9863   2.9863   3.4070   3.4070
     3.8503   3.8503   3.9412   3.9412   4.3274   4.3274   4.4127   4.4127
     4.7070   4.7070   5.9596   5.9596   6.2268   6.2268   6.3847   6.3847
     7.1195   7.1196

          k = 0.2541 0.0645 0.0000 ( 36396 PWs)   bands (ev):

   -44.1478 -44.1478 -22.2844 -22.2844 -22.1951 -22.1951 -22.0698 -22.0698
    -7.5821  -7.0725  -7.0290  -6.7508  -6.4159  -5.3176  -5.0604  -4.8444
    -4.7896  -3.9979   0.5041   0.8446   0.8961   1.1963   1.3237   1.4344
     1.9127   2.0136   2.2020   2.5372   2.5828   3.0565   3.4289   3.6841
     3.7010   3.7281   3.7737   3.7890   4.0115   4.1967   4.2358   4.2563
     4.4706   4.6665   5.7257   5.9845   6.2640   6.5504   6.6217   6.8302
     7.0054   7.1473

          k = 0.2541 0.0645 0.1485 ( 36423 PWs)   bands (ev):

   -44.1478 -44.1478 -22.2844 -22.2844 -22.1951 -22.1951 -22.0698 -22.0698
    -7.5442  -7.2597  -6.8787  -6.7607  -6.3106  -5.6370  -4.8774  -4.8023
    -4.7008  -4.0918   0.5414   0.8845   0.9761   0.9847   1.1512   1.5649
     1.8444   2.3061   2.4075   2.5391   2.5500   2.9285   3.2798   3.3085
     3.6280   3.6985   3.8688   3.9029   4.0076   4.1065   4.2500   4.2963
     4.6882   4.9888   5.8137   5.8483   6.2048   6.2706   6.4639   6.6915
     7.2508   7.3047

          k = 0.2541 0.0645-0.2971 ( 36436 PWs)   bands (ev):

   -44.1478 -44.1478 -22.2844 -22.2844 -22.1951 -22.1951 -22.0698 -22.0698
    -7.4333  -7.4333  -6.7950  -6.7950  -6.0217  -6.0217  -4.8337  -4.8337
    -4.3495  -4.3495   0.6926   0.6926   0.9865   0.9865   1.2557   1.2557
     2.2972   2.2972   2.5323   2.5323   2.6803   2.6803   3.1205   3.1205
     3.6018   3.6018   3.8840   3.8840   4.0536   4.0536   4.2950   4.2950
     5.1395   5.1395   5.7528   5.7528   6.1001   6.1001   6.4552   6.4552
     7.4367   7.4367

          k = 0.5081 0.1290 0.0000 ( 36499 PWs)   bands (ev):

   -44.1469 -44.1469 -22.2796 -22.2796 -22.2190 -22.2190 -22.0669 -22.0668
    -7.2608  -6.8885  -6.7254  -6.6217  -6.2198  -5.2423  -5.1036  -4.7356
    -4.6852  -4.4225   0.5465   0.6456   0.7022   1.2010   1.2692   1.5063
     1.6720   1.7907   2.0344   2.0943   2.1669   2.3131   2.3298   3.2905
     3.3838   3.4469   3.4821   3.5829   3.7672   3.8730   3.9285   4.1577
     4.5578   5.2450   5.4355   5.9371   5.9655   6.5547   6.5676   6.8728
     7.4064   7.5664

          k = 0.5081 0.1290 0.1485 ( 36476 PWs)   bands (ev):

   -44.1469 -44.1469 -22.2796 -22.2796 -22.2190 -22.2190 -22.0669 -22.0668
    -7.2270  -6.9888  -6.6829  -6.6281  -6.1040  -5.5055  -4.9143  -4.7134
    -4.6838  -4.4549   0.5132   0.7156   0.8309   1.0665   1.2369   1.4236
     1.4807   1.6313   2.0301   2.0808   2.3238   2.5181   2.8093   3.3161
     3.3823   3.4168   3.4902   3.5822   3.6600   3.7576   3.8459   4.2174
     4.3702   4.5638   6.0565   6.1216   6.2366   6.5594   6.6102   6.7438
     7.2473   7.4909

          k = 0.5081 0.1290-0.2971 ( 36466 PWs)   bands (ev):

   -44.1469 -44.1469 -22.2796 -22.2796 -22.2190 -22.2190 -22.0669 -22.0669
    -7.1298  -7.1298  -6.6473  -6.6473  -5.8324  -5.8324  -4.7854  -4.7854
    -4.5550  -4.5550   0.6027   0.6027   1.0792   1.0792   1.2092   1.2092
     1.3793   1.3793   2.0572   2.0572   2.7533   2.7533   3.1270   3.1270
     3.3626   3.3626   3.5508   3.5508   3.7005   3.7005   3.8261   3.8261
     4.3025   4.3025   6.2933   6.2933   6.5401   6.5401   6.7894   6.7894
     7.1011   7.1011

          k = 0.7622 0.1934 0.0000 ( 36521 PWs)   bands (ev):

   -44.1460 -44.1460 -22.2748 -22.2748 -22.2428 -22.2428 -22.0639 -22.0639
    -6.8592  -6.7252  -6.3725  -6.2667  -5.8841  -5.3178  -5.2542  -5.0691
    -4.6133  -4.5781   0.0106   0.2076   0.6282   1.1054   1.1276   1.2430
     1.4760   1.5958   1.9250   1.9867   2.2685   2.4094   2.4598   2.7612
     2.8064   3.2592   3.3111   3.3835   3.6342   3.6786   3.7712   3.7802
     3.9364   4.5662   5.7922   6.2139   6.2869   6.7369   6.7608   6.8588
     7.2332   7.5818

          k = 0.7622 0.1934 0.1485 ( 36503 PWs)   bands (ev):

   -44.1460 -44.1460 -22.2748 -22.2748 -22.2428 -22.2428 -22.0639 -22.0639
    -6.8402  -6.7445  -6.3696  -6.3064  -5.7902  -5.4230  -5.1976  -5.0881
    -4.6032  -4.5792   0.0716   0.3261   0.5029   0.9495   1.1155   1.2100
     1.4913   1.6540   1.7747   2.0777   2.1358   2.6362   2.6902   2.7991
     2.8703   3.1297   3.2721   3.3852   3.4994   3.6245   3.6642   3.9095
     3.9864   4.6611   5.4754   6.2734   6.5774   6.6362   6.7963   6.9241
     7.0093   7.5016

          k = 0.7622 0.1934-0.2971 ( 36522 PWs)   bands (ev):

   -44.1460 -44.1460 -22.2748 -22.2748 -22.2428 -22.2428 -22.0639 -22.0639
    -6.7927  -6.7927  -6.3524  -6.3524  -5.6039  -5.6039  -5.1361  -5.1361
    -4.5869  -4.5869   0.2502   0.2502   0.6550   0.6550   1.0740   1.0740
     1.5725   1.5725   1.9957   1.9957   2.3679   2.3679   2.7989   2.7989
     2.9955   2.9955   3.3727   3.3727   3.5793   3.5793   3.8185   3.8185
     4.1583   4.1583   6.0236   6.0236   6.3905   6.3905   6.8809   6.8809
     7.3408   7.3408

          k =-1.0162-0.2579 0.0000 ( 36506 PWs)   bands (ev):

   -44.1456 -44.1456 -22.2726 -22.2726 -22.2528 -22.2528 -22.0627 -22.0627
    -6.6948  -6.6748  -5.8360  -5.8248  -5.7518  -5.7411  -5.4637  -5.4630
    -4.5560  -4.5350   0.0568   0.0820   0.3999   0.4201   1.0112   1.0200
     1.4664   1.6722   2.2324   2.3660   2.3694   2.3717   2.7888   2.8169
     2.8195   2.9009   3.2523   3.2625   3.3026   3.4690   3.5813   3.6550
     3.7939   3.9776   6.4157   6.4428   6.4885   6.5717   6.9607   7.0360
     7.0478   7.0534

          k =-1.0162-0.2579 0.1485 ( 36506 PWs)   bands (ev):

   -44.1456 -44.1456 -22.2726 -22.2726 -22.2528 -22.2528 -22.0627 -22.0627
    -6.6912  -6.6770  -5.8498  -5.8410  -5.7401  -5.7339  -5.4545  -5.4545
    -4.5578  -4.5429  -0.0351  -0.0269   0.6223   0.6282   1.0215   1.0453
     1.4635   1.5857   1.9376   2.0182   2.3732   2.3864   2.7371   2.7372
     2.9465   2.9908   3.1520   3.2086   3.5517   3.5618   3.7037   3.7399
     4.0731   4.1127   5.8979   5.9087   6.4157   6.4895   6.9671   7.0019
     7.2554   7.2859

          k =-1.0162-0.2579-0.2971 ( 36528 PWs)   bands (ev):

   -44.1456 -44.1456 -22.2726 -22.2726 -22.2528 -22.2528 -22.0627 -22.0627
    -6.6834  -6.6834  -5.8578  -5.8578  -5.7300  -5.7300  -5.4457  -5.4457
    -4.5552  -4.5552  -0.0924  -0.0924   0.9160   0.9160   0.9697   0.9697
     1.5613   1.5613   1.6115   1.6115   2.3737   2.3737   2.7788   2.7788
     2.9304   2.9304   3.1799   3.1799   3.6097   3.6097   3.7836   3.7836
     4.5163   4.5163   5.3644   5.3644   6.3776   6.3776   7.0067   7.0067
     7.3333   7.3333

          k = 0.5081 0.0000 0.0000 ( 36503 PWs)   bands (ev):

   -44.1469 -44.1469 -22.2796 -22.2796 -22.2190 -22.2190 -22.0669 -22.0668
    -7.2663  -6.8903  -6.7264  -6.6153  -6.2156  -5.2430  -5.1003  -4.7310
    -4.6909  -4.4221   0.5466   0.6521   0.6974   1.1708   1.2642   1.4851
     1.6752   1.7965   2.0523   2.0810   2.1265   2.3187   2.3246   3.2743
     3.4015   3.4233   3.5386   3.5989   3.7734   3.8589   3.9732   4.1949
     4.5599   5.2443   5.4413   5.9434   5.9740   6.5148   6.5167   6.9081
     7.4308   7.5758

          k = 0.5081 0.0000 0.1485 ( 36453 PWs)   bands (ev):

   -44.1469 -44.1469 -22.2796 -22.2796 -22.2190 -22.2190 -22.0669 -22.0668
    -7.2324  -6.9929  -6.6795  -6.6218  -6.1021  -5.5060  -4.9086  -4.7153
    -4.6841  -4.4558   0.5124   0.7106   0.8354   1.0683   1.2116   1.4355
     1.4435   1.6237   2.0254   2.0865   2.3307   2.4871   2.8026   3.3036
     3.3818   3.4481   3.4952   3.5937   3.6551   3.8177   3.8408   4.2533
     4.3849   4.5624   6.0544   6.1370   6.2457   6.5089   6.5744   6.7748
     7.2717   7.4966

          k = 0.5081 0.0000-0.2971 ( 36452 PWs)   bands (ev):

   -44.1469 -44.1469 -22.2796 -22.2796 -22.2190 -22.2190 -22.0669 -22.0669
    -7.1349  -7.1349  -6.6413  -6.6413  -5.8325  -5.8325  -4.7813  -4.7813
    -4.5578  -4.5578   0.5987   0.5987   1.0792   1.0792   1.2297   1.2297
     1.3339   1.3339   2.0579   2.0579   2.7443   2.7443   3.1080   3.1080
     3.3577   3.3577   3.5924   3.5924   3.7168   3.7168   3.8287   3.8287
     4.3257   4.3257   6.3091   6.3091   6.5048   6.5048   6.8052   6.8052
     7.1027   7.1027

          k = 0.7622 0.0645 0.0000 ( 36505 PWs)   bands (ev):

   -44.1460 -44.1460 -22.2748 -22.2748 -22.2428 -22.2428 -22.0639 -22.0639
    -6.8684  -6.7232  -6.3634  -6.2688  -5.8835  -5.3136  -5.2549  -5.0687
    -4.6058  -4.5867   0.0052   0.2189   0.6505   1.1153   1.1379   1.2573
     1.4350   1.5539   1.9010   2.0016   2.2432   2.3715   2.4422   2.7339
     2.7923   3.3141   3.3387   3.3963   3.6123   3.6529   3.7944   3.8269
     3.9543   4.6068   5.7903   6.2266   6.2549   6.7061   6.8159   6.8184
     7.2543   7.5882

          k = 0.7622 0.0645 0.1485 ( 36509 PWs)   bands (ev):

   -44.1460 -44.1460 -22.2748 -22.2748 -22.2428 -22.2428 -22.0639 -22.0639
    -6.8485  -6.7452  -6.3609  -6.3048  -5.7910  -5.4229  -5.1951  -5.0872
    -4.5980  -4.5853   0.0708   0.3317   0.5124   0.9675   1.1159   1.2251
     1.4552   1.6533   1.8004   2.0046   2.0651   2.6536   2.6762   2.7736
     2.8565   3.1311   3.3358   3.4010   3.4688   3.6399   3.6845   3.9275
     4.0289   4.6598   5.5019   6.2555   6.5837   6.6295   6.8124   6.9211
     6.9875   7.5203

          k = 0.7622 0.0645-0.2971 ( 36472 PWs)   bands (ev):

   -44.1460 -44.1460 -22.2748 -22.2748 -22.2428 -22.2428 -22.0639 -22.0639
    -6.7981  -6.7981  -6.3458  -6.3458  -5.6052  -5.6052  -5.1340  -5.1340
    -4.5873  -4.5873   0.2548   0.2548   0.6501   0.6501   1.0988   1.0988
     1.5662   1.5662   1.9471   1.9471   2.3342   2.3342   2.7955   2.7955
     2.9881   2.9881   3.4374   3.4374   3.5758   3.5758   3.8082   3.8082
     4.1816   4.1816   6.0482   6.0482   6.3918   6.3918   6.8470   6.8470
     7.3675   7.3675

          k = 1.0162 0.1290 0.0000 ( 36514 PWs)   bands (ev):

   -44.1456 -44.1456 -22.2726 -22.2726 -22.2528 -22.2528 -22.0627 -22.0627
    -6.6948  -6.6748  -5.8356  -5.8252  -5.7518  -5.7411  -5.4638  -5.4629
    -4.5560  -4.5350   0.0509   0.0880   0.3946   0.4255   1.0058   1.0269
     1.4716   1.6635   2.2346   2.3576   2.3601   2.3762   2.7884   2.8125
     2.8465   2.9009   3.2404   3.2663   3.3073   3.4617   3.6023   3.6409
     3.7765   3.9895   6.4094   6.4500   6.4837   6.5774   6.9737   7.0382
     7.0459   7.0499

          k = 1.0162 0.1290 0.1485 ( 36524 PWs)   bands (ev):

   -44.1456 -44.1456 -22.2726 -22.2726 -22.2528 -22.2528 -22.0627 -22.0627
    -6.6912  -6.6770  -5.8495  -5.8413  -5.7401  -5.7339  -5.4549  -5.4541
    -4.5578  -4.5429  -0.0372  -0.0252   0.6223   0.6288   1.0253   1.0423
     1.4681   1.5820   1.9469   2.0047   2.3678   2.3821   2.6906   2.7917
     2.9621   3.0057   3.1299   3.2073   3.5330   3.6004   3.6948   3.7211
     4.0590   4.1318   5.8878   5.9213   6.4129   6.4920   6.9738   7.0006
     7.2600   7.2817

          k = 1.0162 0.1290-0.2971 ( 36516 PWs)   bands (ev):

   -44.1456 -44.1456 -22.2726 -22.2726 -22.2528 -22.2528 -22.0627 -22.0627
    -6.6834  -6.6834  -5.8578  -5.8578  -5.7300  -5.7300  -5.4457  -5.4457
    -4.5552  -4.5552  -0.0925  -0.0925   0.9149   0.9149   0.9719   0.9719
     1.5607   1.5607   1.6132   1.6132   2.3638   2.3638   2.7628   2.7628
     2.9817   2.9817   3.1526   3.1526   3.6153   3.6153   3.7771   3.7771
     4.5167   4.5167   5.3664   5.3664   6.3772   6.3772   7.0088   7.0088
     7.3335   7.3335

          k =-0.7622-0.3224 0.0000 ( 36511 PWs)   bands (ev):

   -44.1460 -44.1460 -22.2748 -22.2748 -22.2428 -22.2428 -22.0639 -22.0639
    -6.8447  -6.7292  -6.3853  -6.2636  -5.8850  -5.3239  -5.2531  -5.0698
    -4.6194  -4.5703   0.0183   0.1922   0.5982   1.0773   1.1447   1.2244
     1.4992   1.6615   1.9675   1.9750   2.3249   2.4351   2.4852   2.7975
     2.8237   3.1832   3.2874   3.4011   3.5902   3.6574   3.7498   3.8057
     3.8984   4.4996   5.7950   6.2055   6.3315   6.6790   6.7840   6.9256
     7.1966   7.5771

          k =-0.7622-0.3224 0.1485 ( 36492 PWs)   bands (ev):

   -44.1460 -44.1460 -22.2748 -22.2748 -22.2428 -22.2428 -22.0639 -22.0639
    -6.8271  -6.7444  -6.3822  -6.3088  -5.7891  -5.4233  -5.2011  -5.0894
    -4.6073  -4.5737   0.0720   0.3198   0.4884   0.9265   1.1233   1.1888
     1.5376   1.6501   1.7537   2.1835   2.2322   2.6202   2.6998   2.8271
     2.8853   3.1499   3.1884   3.3706   3.4795   3.6220   3.6573   3.8799
     3.9169   4.6616   5.4400   6.3024   6.5541   6.6418   6.7778   6.9558
     7.0349   7.4682

          k =-0.7622-0.3224-0.2971 ( 36508 PWs)   bands (ev):

   -44.1460 -44.1460 -22.2748 -22.2748 -22.2428 -22.2428 -22.0639 -22.0639
    -6.7847  -6.7847  -6.3621  -6.3621  -5.6019  -5.6019  -5.1391  -5.1391
    -4.5864  -4.5864   0.2433   0.2433   0.6619   0.6619   1.0452   1.0452
     1.5794   1.5794   2.0509   2.0509   2.4343   2.4343   2.8060   2.8060
     3.0051   3.0051   3.2821   3.2821   3.5816   3.5816   3.8200   3.8200
     4.1292   4.1292   5.9913   5.9913   6.3873   6.3873   6.9381   6.9381
     7.2954   7.2954

          k =-0.5081-0.2579 0.0000 ( 36480 PWs)   bands (ev):

   -44.1469 -44.1469 -22.2796 -22.2796 -22.2190 -22.2190 -22.0669 -22.0668
    -7.2469  -6.8849  -6.7230  -6.6368  -6.2303  -5.2406  -5.1117  -4.7426
    -4.6754  -4.4236   0.5491   0.6307   0.7058   1.2806   1.2897   1.5577
     1.6697   1.7804   2.0062   2.1295   2.2366   2.2993   2.3387   3.3305
     3.3610   3.3812   3.4776   3.5057   3.7385   3.8615   3.8832   4.0833
     4.5492   5.2440   5.4239   5.8490   6.0211   6.6539   6.6879   6.7882
     7.3396   7.5468

          k =-0.5081-0.2579 0.1485 ( 36485 PWs)   bands (ev):

   -44.1469 -44.1469 -22.2796 -22.2796 -22.2190 -22.2190 -22.0669 -22.0668
    -7.2132  -6.9789  -6.6920  -6.6433  -6.1088  -5.5042  -4.9273  -4.7101
    -4.6823  -4.4528   0.5158   0.7244   0.8197   1.0629   1.3066   1.4211
     1.5480   1.6512   2.0374   2.0733   2.3142   2.5795   2.8252   3.3186
     3.3485   3.3892   3.4857   3.5212   3.6424   3.7101   3.8300   4.1423
     4.3268   4.5656   6.0399   6.1005   6.2214   6.6594   6.6828   6.7090
     7.1841   7.4804

          k =-0.5081-0.2579-0.2971 ( 36478 PWs)   bands (ev):

   -44.1469 -44.1469 -22.2796 -22.2796 -22.2190 -22.2190 -22.0669 -22.0669
    -7.1170  -7.1170  -6.6623  -6.6623  -5.8321  -5.8321  -4.7950  -4.7950
    -4.5487  -4.5487   0.6117   0.6117   1.0785   1.0785   1.1821   1.1821
     1.4750   1.4750   2.0534   2.0534   2.7781   2.7781   3.1719   3.1719
     3.3671   3.3671   3.4323   3.4323   3.6898   3.6898   3.8140   3.8140
     4.2457   4.2457   6.2552   6.2552   6.6153   6.6153   6.7577   6.7577
     7.1029   7.1029

          k =-0.2541-0.1934 0.0000 ( 36410 PWs)   bands (ev):

   -44.1478 -44.1478 -22.2844 -22.2844 -22.1951 -22.1951 -22.0698 -22.0698
    -7.5723  -7.0642  -7.0273  -6.7628  -6.4310  -5.3172  -5.0678  -4.8520
    -4.7794  -3.9989   0.5328   0.9048   0.9170   1.2230   1.3562   1.4340
     1.9358   2.0340   2.2051   2.5030   2.5672   3.1236   3.3650   3.5907
     3.6292   3.7031   3.7649   3.8359   3.9098   4.1819   4.2156   4.2158
     4.4044   4.6469   5.7770   6.0043   6.3156   6.5990   6.6107   6.8443
     6.9965   7.0695

          k =-0.2541-0.1934 0.1485 ( 36427 PWs)   bands (ev):

   -44.1478 -44.1478 -22.2844 -22.2844 -22.1951 -22.1951 -22.0698 -22.0698
    -7.5345  -7.2511  -6.8827  -6.7724  -6.3199  -5.6370  -4.8955  -4.7968
    -4.6941  -4.0917   0.5659   0.9326   0.9947   1.0306   1.1800   1.5812
     1.8476   2.3082   2.4289   2.5135   2.5438   2.9147   3.2889   3.3482
     3.5648   3.6434   3.7365   3.8912   3.9719   4.0877   4.2084   4.2422
     4.6770   4.9739   5.7955   5.8692   6.1835   6.3294   6.5390   6.6996
     7.2079   7.2962

          k =-0.2541-0.1934-0.2971 ( 36422 PWs)   bands (ev):

   -44.1478 -44.1478 -22.2844 -22.2844 -22.1951 -22.1951 -22.0698 -22.0698
    -7.4238  -7.4238  -6.8053  -6.8053  -6.0241  -6.0241  -4.8394  -4.8394
    -4.3467  -4.3467   0.7108   0.7108   1.0514   1.0514   1.2646   1.2646
     2.2970   2.2970   2.5156   2.5156   2.6825   2.6825   3.1480   3.1480
     3.5433   3.5433   3.8068   3.8068   4.0416   4.0416   4.2391   4.2391
     5.1412   5.1412   5.7122   5.7122   6.0960   6.0960   6.5420   6.5420
     7.4113   7.4114

          k = 0.0000-0.1290 0.0000 ( 36417 PWs)   bands (ev):

   -44.1482 -44.1482 -22.2863 -22.2863 -22.1852 -22.1852 -22.0711 -22.0710
    -7.6912  -7.1454  -7.1334  -6.8040  -6.4864  -5.3564  -5.0683  -4.8916
    -4.8250  -3.8576   0.4398   0.7531   0.7671   1.0844   1.5293   1.5654
     2.4073   2.4380   2.6679   2.9424   3.0032   3.0202   3.1827   3.4578
     3.5359   3.6577   3.7943   4.0154   4.1513   4.2515   4.2739   4.6358
     5.0286   5.5034   5.6226   5.6880   5.8610   6.0523   6.3810   6.7960
     6.9469   7.2629

          k = 0.0000-0.1290 0.1485 ( 36419 PWs)   bands (ev):

   -44.1482 -44.1482 -22.2863 -22.2863 -22.1852 -22.1852 -22.0711 -22.0710
    -7.6524  -7.3585  -6.9506  -6.8150  -6.3846  -5.6922  -4.9104  -4.8386
    -4.6927  -3.9743   0.4871   0.7909   0.9243   1.0401   1.0787   1.9973
     2.1161   2.4349   2.6120   2.9605   2.9985   3.1280   3.3229   3.3632
     3.6666   3.7431   3.7845   3.9859   4.0980   4.2756   4.2912   4.6475
     4.8693   5.0341   5.7527   5.9446   6.0233   6.0502   6.5975   6.6869
     6.7775   7.2383

          k = 0.0000-0.1290-0.2971 ( 36464 PWs)   bands (ev):

   -44.1482 -44.1482 -22.2863 -22.2863 -22.1852 -22.1852 -22.0710 -22.0710
    -7.5384  -7.5384  -6.8540  -6.8540  -6.0925  -6.0925  -4.8715  -4.8715
    -4.2832  -4.2832   0.6858   0.6858   0.8968   0.8968   1.4237   1.4237
     2.5115   2.5115   2.6938   2.6938   2.9843   2.9843   3.3786   3.3786
     3.8107   3.8107   3.9351   3.9351   4.2401   4.2401   4.4262   4.4262
     4.7064   4.7064   5.9547   5.9547   6.2496   6.2496   6.3865   6.3865
     7.1212   7.1212

          k = 1.0162 0.0000 0.0000 ( 36499 PWs)   bands (ev):

   -44.1456 -44.1456 -22.2726 -22.2726 -22.2528 -22.2528 -22.0627 -22.0627
    -6.6948  -6.6748  -5.8352  -5.8256  -5.7518  -5.7411  -5.4639  -5.4628
    -4.5560  -4.5350   0.0465   0.0926   0.3908   0.4296   1.0029   1.0313
     1.4776   1.6541   2.2368   2.3449   2.3575   2.3799   2.7885   2.8078
     2.8736   2.8993   3.2338   3.2830   3.2948   3.4505   3.6290   3.6313
     3.7527   4.0004   6.4049   6.4554   6.4793   6.5827   6.9912   7.0341
     7.0403   7.0521

          k = 1.0162 0.0000 0.1485 ( 36485 PWs)   bands (ev):

   -44.1456 -44.1456 -22.2726 -22.2726 -22.2528 -22.2528 -22.0627 -22.0627
    -6.6912  -6.6770  -5.8493  -5.8415  -5.7400  -5.7339  -5.4551  -5.4539
    -4.5578  -4.5429  -0.0389  -0.0239   0.6224   0.6294   1.0335   1.0349
     1.4732   1.5777   1.9663   1.9810   2.3646   2.3761   2.6755   2.8102
     2.9790   3.0491   3.0819   3.2064   3.5280   3.6351   3.6885   3.6898
     4.0504   4.1451   5.8828   5.9289   6.4102   6.4944   6.9822   6.9976
     7.2688   7.2731

          k = 1.0162 0.0000-0.2971 ( 36514 PWs)   bands (ev):

   -44.1456 -44.1456 -22.2726 -22.2726 -22.2528 -22.2528 -22.0627 -22.0627
    -6.6834  -6.6834  -5.8578  -5.8578  -5.7300  -5.7300  -5.4457  -5.4457
    -4.5552  -4.5552  -0.0927  -0.0927   0.9138   0.9138   0.9740   0.9740
     1.5601   1.5601   1.6148   1.6148   2.3542   2.3542   2.7516   2.7516
     3.0601   3.0601   3.0930   3.0930   3.6213   3.6213   3.7702   3.7702
     4.5171   4.5171   5.3684   5.3684   6.3768   6.3768   7.0110   7.0110
     7.3336   7.3336

          k = 1.2703 0.0645 0.0000 ( 36468 PWs)   bands (ev):

   -44.1460 -44.1460 -22.2748 -22.2748 -22.2428 -22.2428 -22.0639 -22.0639
    -6.8328  -6.7335  -6.3945  -6.2614  -5.8857  -5.3282  -5.2523  -5.0702
    -4.6226  -4.5660   0.0238   0.1815   0.5779   1.0650   1.1567   1.2111
     1.5035   1.7081   1.9551   2.0228   2.3799   2.4313   2.5040   2.8228
     2.8319   3.1174   3.3023   3.4616   3.5385   3.5567   3.7440   3.8611
     3.8746   4.4423   5.7971   6.2045   6.3648   6.6206   6.8205   6.9819
     7.1611   7.5827

          k = 1.2703 0.0645 0.1485 ( 36490 PWs)   bands (ev):

   -44.1460 -44.1460 -22.2748 -22.2748 -22.2428 -22.2428 -22.0639 -22.0639
    -6.8167  -6.7453  -6.3911  -6.3107  -5.7882  -5.4235  -5.2035  -5.0903
    -4.6094  -4.5707   0.0718   0.3166   0.4774   0.9123   1.1343   1.1722
     1.5736   1.6392   1.7448   2.2612   2.3054   2.6085   2.7033   2.8406
     2.8965   3.1204   3.1891   3.3723   3.4288   3.5742   3.7362   3.8270
     3.8663   4.6609   5.4164   6.3277   6.5238   6.6449   6.7725   6.9930
     7.0498   7.4394

          k = 1.2703 0.0645-0.2971 ( 36480 PWs)   bands (ev):

   -44.1460 -44.1460 -22.2748 -22.2748 -22.2428 -22.2428 -22.0639 -22.0639
    -6.7789  -6.7789  -6.3691  -6.3691  -5.6005  -5.6005  -5.1412  -5.1412
    -4.5860  -4.5860   0.2383   0.2383   0.6666   0.6666   1.0283   1.0283
     1.5840   1.5840   2.0792   2.0792   2.4969   2.4969   2.8209   2.8209
     3.0072   3.0072   3.2091   3.2091   3.5846   3.5846   3.8118   3.8118
     4.1125   4.1125   5.9699   5.9699   6.3844   6.3844   6.9890   6.9890
     7.2540   7.2540

          k =-0.5081-0.3869 0.0000 ( 36463 PWs)   bands (ev):

   -44.1469 -44.1469 -22.2797 -22.2796 -22.2190 -22.2190 -22.0669 -22.0668
    -7.2319  -6.8826  -6.7205  -6.6511  -6.2413  -5.2388  -5.1199  -4.7468
    -4.6683  -4.4246   0.5560   0.6167   0.6991   1.2910   1.4221   1.5969
     1.6601   1.7722   1.9904   2.1707   2.2691   2.3006   2.3401   3.2399
     3.3621   3.3965   3.4092   3.5286   3.7004   3.7947   3.8370   4.0744
     4.5376   5.2369   5.4147   5.7614   6.0827   6.7030   6.7669   6.8059
     7.2536   7.5435

          k =-0.5081-0.3869 0.1485 ( 36477 PWs)   bands (ev):

   -44.1469 -44.1469 -22.2796 -22.2796 -22.2190 -22.2190 -22.0669 -22.0668
    -7.1984  -6.9688  -6.7022  -6.6587  -6.1136  -5.5029  -4.9395  -4.7084
    -4.6798  -4.4508   0.5193   0.7294   0.8071   1.0596   1.3932   1.4278
     1.5954   1.6877   2.0416   2.0759   2.3037   2.6241   2.8436   3.2054
     3.3575   3.3901   3.4292   3.5211   3.6495   3.6926   3.7744   4.1089
     4.2636   4.5669   5.9854   6.1124   6.2143   6.5975   6.7781   6.8291
     7.1053   7.4824

          k =-0.5081-0.3869-0.2971 ( 36492 PWs)   bands (ev):

   -44.1469 -44.1469 -22.2796 -22.2796 -22.2190 -22.2190 -22.0669 -22.0669
    -7.1032  -7.1032  -6.6782  -6.6782  -5.8318  -5.8318  -4.8043  -4.8043
    -4.5428  -4.5428   0.6201   0.6201   1.0771   1.0771   1.1645   1.1645
     1.5777   1.5777   2.0427   2.0427   2.8079   2.8079   3.1861   3.1861
     3.3126   3.3126   3.3972   3.3972   3.6805   3.6805   3.7984   3.7984
     4.1887   4.1887   6.2183   6.2183   6.6479   6.6479   6.7598   6.7598
     7.1170   7.1170

          k =-0.2541-0.3224 0.0000 ( 36485 PWs)   bands (ev):

   -44.1479 -44.1478 -22.2844 -22.2844 -22.1951 -22.1951 -22.0698 -22.0698
    -7.5577  -7.0530  -7.0248  -6.7786  -6.4535  -5.3166  -5.0787  -4.8572
    -4.7701  -4.0004   0.5590   0.9183   1.0422   1.2722   1.4283   1.4304
     1.9718   2.0666   2.2063   2.4244   2.5181   3.2389   3.2597   3.4080
     3.5780   3.6447   3.7361   3.8654   3.8854   4.0946   4.1721   4.1801
     4.3922   4.5976   5.8585   6.0227   6.3624   6.5653   6.6965   6.8643
     6.9310   7.0118

          k =-0.2541-0.3224 0.1485 ( 36445 PWs)   bands (ev):

   -44.1478 -44.1478 -22.2844 -22.2844 -22.1951 -22.1951 -22.0698 -22.0698
    -7.5200  -7.2383  -6.8898  -6.7886  -6.3333  -5.6367  -4.9168  -4.7927
    -4.6855  -4.0915   0.5864   0.9642   1.0279   1.1447   1.2572   1.6057
     1.8578   2.3071   2.4346   2.4515   2.5314   2.8938   3.3251   3.3589
     3.3965   3.5293   3.7191   3.8829   3.9126   4.0689   4.1246   4.1823
     4.6905   4.9417   5.7787   5.8976   6.1761   6.3332   6.6395   6.7253
     7.1576   7.2831

          k =-0.2541-0.3224-0.2971 ( 36442 PWs)   bands (ev):

   -44.1478 -44.1478 -22.2844 -22.2844 -22.1951 -22.1951 -22.0698 -22.0698
    -7.4097  -7.4097  -6.8207  -6.8207  -6.0273  -6.0273  -4.8475  -4.8475
    -4.3427  -4.3427   0.7231   0.7231   1.1795   1.1795   1.2770   1.2770
     2.2954   2.2954   2.4705   2.4705   2.6815   2.6815   3.1965   3.1965
     3.3781   3.3781   3.7928   3.7928   4.0195   4.0195   4.1650   4.1650
     5.1464   5.1464   5.6682   5.6682   6.0717   6.0717   6.6486   6.6486
     7.3790   7.3790

          k = 0.0000-0.2579 0.0000 ( 36445 PWs)   bands (ev):

   -44.1482 -44.1482 -22.2863 -22.2863 -22.1852 -22.1852 -22.0711 -22.0710
    -7.6784  -7.1324  -7.1312  -6.8192  -6.5100  -5.3566  -5.0786  -4.8991
    -4.8139  -3.8592   0.4827   0.7803   0.8673   1.1284   1.5857   1.5904
     2.4143   2.4406   2.6858   2.9388   2.9954   3.0492   3.2839   3.2907
     3.3225   3.6312   3.6930   3.9762   4.1134   4.1470   4.1513   4.6374
     5.0074   5.4426   5.6894   5.7057   5.8984   6.1193   6.4763   6.7222
     6.9480   7.2243

          k = 0.0000-0.2579 0.1485 ( 36452 PWs)   bands (ev):

   -44.1482 -44.1482 -22.2863 -22.2863 -22.1852 -22.1852 -22.0711 -22.0710
    -7.6396  -7.3470  -6.9543  -6.8300  -6.4000  -5.6928  -4.9319  -4.8332
    -4.6849  -3.9743   0.5217   0.8955   0.9653   1.0878   1.1092   2.0181
     2.1519   2.4425   2.6261   2.9572   2.9916   3.1303   3.2251   3.2630
     3.6320   3.6632   3.7203   3.9219   4.0932   4.1518   4.1772   4.6489
     4.8589   5.0178   5.7823   5.9543   6.0568   6.0812   6.5620   6.7465
     6.7796   7.2042

          k = 0.0000-0.2579-0.2971 ( 36454 PWs)   bands (ev):

   -44.1482 -44.1482 -22.2863 -22.2863 -22.1852 -22.1852 -22.0710 -22.0710
    -7.5259  -7.5259  -6.8670  -6.8670  -6.0971  -6.0971  -4.8786  -4.8786
    -4.2801  -4.2801   0.7185   0.7185   0.9855   0.9855   1.4456   1.4456
     2.5214   2.5214   2.7138   2.7138   2.9795   2.9795   3.2400   3.2400
     3.7710   3.7710   3.9203   3.9203   4.1017   4.1017   4.4173   4.4173
     4.7052   4.7052   5.9375   5.9375   6.2906   6.2906   6.3911   6.3911
     7.1089   7.1089

          k = 1.5243 0.0000 0.0000 ( 36439 PWs)   bands (ev):

   -44.1469 -44.1469 -22.2797 -22.2796 -22.2190 -22.2190 -22.0669 -22.0668
    -7.2253  -6.8822  -6.7195  -6.6568  -6.2460  -5.2381  -5.1233  -4.7480
    -4.6658  -4.4251   0.5604   0.6111   0.6933   1.2951   1.5443   1.5697
     1.6329   1.7669   2.0015   2.1908   2.2526   2.3196   2.3372   3.1902
     3.3421   3.3735   3.4221   3.6125   3.6797   3.6896   3.8299   4.0898
     4.5322   5.2312   5.4114   5.7258   6.1107   6.6667   6.8264   6.8521
     7.2067   7.5735

          k = 1.5243 0.0000 0.1485 ( 36476 PWs)   bands (ev):

   -44.1469 -44.1469 -22.2796 -22.2796 -22.2190 -22.2190 -22.0669 -22.0668
    -7.1920  -6.9645  -6.7067  -6.6651  -6.1155  -5.5023  -4.9444  -4.7082
    -4.6786  -4.4500   0.5210   0.7307   0.8012   1.0584   1.4151   1.4598
     1.5946   1.7149   2.0517   2.0731   2.2966   2.6346   2.8548   3.1560
     3.3155   3.4028   3.4135   3.5929   3.6300   3.6965   3.7056   4.1259
     4.2195   4.5674   5.9585   6.1216   6.2126   6.5684   6.8220   6.8937
     7.0566   7.4937

          k = 1.5243 0.0000-0.2971 ( 36508 PWs)   bands (ev):

   -44.1469 -44.1469 -22.2796 -22.2796 -22.2190 -22.2190 -22.0669 -22.0669
    -7.0971  -7.0971  -6.6852  -6.6852  -5.8316  -5.8316  -4.8080  -4.8080
    -4.5404  -4.5404   0.6234   0.6234   1.0762   1.0762   1.1585   1.1585
     1.6268   1.6268   2.0339   2.0339   2.8226   2.8226   3.1507   3.1507
     3.3161   3.3161   3.3991   3.3991   3.6707   3.6707   3.7922   3.7922
     4.1656   4.1656   6.2033   6.2033   6.6429   6.6429   6.7752   6.7752
     7.1284   7.1284

          k =-0.2541-0.4514 0.0000 ( 36444 PWs)   bands (ev):

   -44.1478 -44.1478 -22.2844 -22.2844 -22.1951 -22.1951 -22.0698 -22.0698
    -7.5469  -7.0456  -7.0231  -6.7885  -6.4706  -5.3161  -5.0866  -4.8587
    -4.7656  -4.0015   0.5679   0.9287   1.1564   1.3037   1.4260   1.5165
     2.0103   2.0922   2.1999   2.3352   2.4422   3.1773   3.2772   3.3409
     3.5882   3.5979   3.7491   3.7875   3.8849   4.0552   4.1412   4.1452
     4.4278   4.5415   5.9258   6.0317   6.3848   6.5356   6.7535   6.8561
     6.8786   6.9996

          k =-0.2541-0.4514 0.1485 ( 36461 PWs)   bands (ev):

   -44.1479 -44.1478 -22.2844 -22.2844 -22.1951 -22.1951 -22.0698 -22.0698
    -7.5093  -7.2289  -6.8960  -6.7996  -6.3428  -5.6365  -4.9301  -4.7911
    -4.6799  -4.0913   0.5923   0.9791   1.0387   1.2793   1.3299   1.6273
     1.8757   2.2942   2.3469   2.4355   2.5202   2.8818   3.2613   3.2771
     3.3928   3.5428   3.7512   3.8463   3.8680   3.9852   4.1190   4.1469
     4.7175   4.9080   5.7699   5.9199   6.1841   6.2961   6.7074   6.7429
     7.1311   7.2728

          k =-0.2541-0.4514-0.2971 ( 36490 PWs)   bands (ev):

   -44.1479 -44.1479 -22.2844 -22.2844 -22.1951 -22.1951 -22.0698 -22.0698
    -7.3993  -7.3993  -6.8322  -6.8322  -6.0294  -6.0294  -4.8533  -4.8533
    -4.3399  -4.3399   0.7257   0.7257   1.2805   1.2805   1.3084   1.3084
     2.2853   2.2853   2.4125   2.4125   2.6810   2.6810   3.2157   3.2157
     3.2797   3.2797   3.7964   3.7964   3.9923   3.9923   4.1255   4.1255
     5.1517   5.1517   5.6422   5.6422   6.0481   6.0481   6.7126   6.7126
     7.3589   7.3590

          k = 0.0000-0.3869 0.0000 ( 36477 PWs)   bands (ev):

   -44.1482 -44.1482 -22.2863 -22.2863 -22.1852 -22.1852 -22.0711 -22.0710
    -7.6649  -7.1290  -7.1196  -6.8328  -6.5354  -5.3568  -5.0895  -4.9016
    -4.8071  -3.8607   0.5061   0.7942   1.0239   1.1923   1.6138   1.6518
     2.4214   2.4413   2.7049   2.9352   2.9869   3.0289   3.0579   3.0961
     3.4265   3.6042   3.7021   3.9313   3.9599   4.0110   4.1511   4.6393
     4.9868   5.4087   5.7235   5.7650   5.9396   6.1588   6.5425   6.6220
     6.9489   7.1983

          k = 0.0000-0.3869 0.1485 ( 36452 PWs)   bands (ev):

   -44.1482 -44.1482 -22.2863 -22.2863 -22.1852 -22.1852 -22.0711 -22.0710
    -7.6262  -7.3350  -6.9594  -6.8444  -6.4157  -5.6933  -4.9501  -4.8303
    -4.6779  -3.9744   0.5363   0.9975   1.0040   1.1508   1.2039   2.0421
     2.1845   2.4504   2.6410   2.9476   2.9542   2.9841   2.9945   3.3091
     3.6025   3.6688   3.6971   3.9091   4.0132   4.0575   4.0882   4.6506
     4.8487   5.0109   5.8216   5.9644   6.0843   6.0848   6.5150   6.7817
     6.7827   7.1725

          k = 0.0000-0.3869-0.2971 ( 36454 PWs)   bands (ev):

   -44.1482 -44.1482 -22.2863 -22.2863 -22.1852 -22.1852 -22.0710 -22.0710
    -7.5128  -7.5128  -6.8807  -6.8807  -6.1015  -6.1015  -4.8858  -4.8858
    -4.2770  -4.2770   0.7254   0.7254   1.1287   1.1287   1.4691   1.4691
     2.5316   2.5316   2.6969   2.6969   2.9744   2.9744   3.0583   3.0583
     3.7894   3.7894   3.9054   3.9054   3.9876   3.9876   4.4028   4.4028
     4.7042   4.7042   5.9138   5.9138   6.3179   6.3179   6.3961   6.3961
     7.0832   7.0833

          k =-2.0325 0.0000 0.0000 ( 36452 PWs)   bands (ev):

   -44.1482 -44.1482 -22.2863 -22.2863 -22.1852 -22.1852 -22.0711 -22.0710
    -7.6591  -7.1280  -7.1146  -6.8378  -6.5466  -5.3568  -5.0942  -4.9018
    -4.8050  -3.8614   0.5106   0.8001   1.1366   1.1880   1.6231   1.6932
     2.4244   2.4405   2.7134   2.8844   2.9338   2.9549   2.9831   3.1223
     3.5293   3.5928   3.7214   3.8115   3.9501   3.9513   4.1510   4.6401
     4.9783   5.3989   5.7309   5.7994   5.9599   6.1708   6.5636   6.5713
     6.9492   7.1899

          k =-2.0325 0.0000 0.1485 ( 36456 PWs)   bands (ev):

   -44.1482 -44.1482 -22.2863 -22.2863 -22.1852 -22.1852 -22.0711 -22.0710
    -7.6204  -7.3299  -6.9620  -6.8501  -6.4223  -5.6934  -4.9571  -4.8295
    -4.6752  -3.9744   0.5376   1.0111   1.0362   1.1922   1.2696   2.0527
     2.1983   2.4537   2.6474   2.8302   2.8827   2.9530   2.9808   3.3615
     3.5819   3.6874   3.7063   3.8875   3.9534   4.0096   4.0860   4.6513
     4.8445   5.0098   5.8424   5.9688   6.0771   6.0954   6.4928   6.7826
     6.7921   7.1610

          k =-2.0325 0.0000-0.2971 ( 36460 PWs)   bands (ev):

   -44.1482 -44.1482 -22.2863 -22.2863 -22.1852 -22.1852 -22.0710 -22.0710
    -7.5072  -7.5072  -6.8867  -6.8867  -6.1033  -6.1033  -4.8888  -4.8888
    -4.2757  -4.2757   0.7245   0.7245   1.2050   1.2050   1.4799   1.4799
     2.5360   2.5360   2.6531   2.6531   2.9722   2.9722   3.0025   3.0025
     3.8049   3.8049   3.8991   3.8991   3.9416   3.9416   4.3972   4.3972
     4.7039   4.7039   5.9021   5.9021   6.3263   6.3263   6.3982   6.3982
     7.0709   7.0709

     the Fermi energy is     5.3692 ev

!    total energy              =   -4240.94617329 Ry

     total all-electron energy =   -150287.639868 Ry
     estimated scf accuracy    <          5.9E-11 Ry
     smearing contrib. (-TS)   =      -0.00001005 Ry
     internal energy E=F+TS    =   -4240.94616324 Ry

     The total energy is F=E-TS. E is the sum of the following terms:
     one-electron contribution =    -165.63396233 Ry
     hartree contribution      =     116.29245684 Ry
     xc contribution           =    -201.44159506 Ry
     ewald contribution        =    -222.65114941 Ry
     one-center paw contrib.   =   -3767.51191329 Ry

     convergence has been achieved in  15 iterations

     Forces acting on atoms (cartesian axes, Ry/au):

     atom    1 type  1   force =    -0.00000000   -0.01312750    0.00000000
     atom    2 type  1   force =     0.00000000    0.01312750    0.00000000
     atom    3 type  2   force =     0.00000000    0.00050840    0.00000000
     atom    4 type  2   force =     0.00000000   -0.00050840    0.00000000
     atom    5 type  2   force =     0.00000000    0.00276163    0.00047038
     atom    6 type  2   force =     0.00000000   -0.00276163   -0.00047038
     atom    7 type  2   force =     0.00000000    0.00276163   -0.00047038
     atom    8 type  2   force =     0.00000000   -0.00276163    0.00047038
     atom    9 type  2   force =     0.00000000    0.01532014    0.01426833
     atom   10 type  2   force =     0.00000000   -0.01532014   -0.01426833
     atom   11 type  2   force =     0.00000000    0.01532014   -0.01426833
     atom   12 type  2   force =     0.00000000   -0.01532014    0.01426833

     Total force =     0.046149     Total SCF correction =     0.000017


     Computing stress (Cartesian axis) and pressure

          total   stress  (Ry/bohr**3)                   (kbar)     P=       -3.59
  -0.00002003  -0.00000000   0.00000000           -2.95       -0.00        0.00
  -0.00000000  -0.00002287   0.00000000           -0.00       -3.36        0.00
   0.00000000   0.00000000  -0.00003035            0.00        0.00       -4.46

 
     init_run     :     35.78s CPU     37.26s WALL (       1 calls)
     electrons    :   1570.63s CPU   1586.32s WALL (       1 calls)
     forces       :      7.61s CPU      7.88s WALL (       1 calls)
     stress       :     50.60s CPU     51.25s WALL (       1 calls)

     Called by init_run:
     wfcinit      :     30.74s CPU     30.99s WALL (       1 calls)
     potinit      :      1.50s CPU      1.55s WALL (       1 calls)
     hinit0       :      1.78s CPU      2.64s WALL (       1 calls)

     Called by electrons:
     c_bands      :   1290.05s CPU   1296.83s WALL (      16 calls)
     sum_band     :    251.75s CPU    256.93s WALL (      16 calls)
     v_of_rho     :      7.46s CPU      7.99s WALL (      16 calls)
     newd         :     15.74s CPU     19.16s WALL (      16 calls)
     PAW_pot      :      5.67s CPU      5.69s WALL (      16 calls)
     mix_rho      :      1.20s CPU      1.24s WALL (      16 calls)

     Called by c_bands:
     init_us_2    :     12.52s CPU     12.58s WALL (    2205 calls)
     cegterg      :   1221.45s CPU   1227.59s WALL (    1008 calls)

     Called by *egterg:
     cdiaghg      :     27.39s CPU     27.51s WALL (    7724 calls)
     h_psi        :   1053.13s CPU   1059.05s WALL (    7850 calls)
     s_psi        :     48.96s CPU     49.03s WALL (    7850 calls)
     g_psi        :      2.12s CPU      2.14s WALL (    6779 calls)

     Called by h_psi:
     h_psi:calbec :     41.43s CPU     41.51s WALL (    7850 calls)
     vloc_psi     :    959.17s CPU    964.85s WALL (    7850 calls)
     add_vuspsi   :     48.75s CPU     48.84s WALL (    7850 calls)

     General routines
     calbec       :     54.02s CPU     54.13s WALL (    9173 calls)
     fft          :      6.70s CPU      7.66s WALL (     232 calls)
     ffts         :      0.16s CPU      0.16s WALL (      32 calls)
     fftw         :    947.87s CPU    953.42s WALL (  386130 calls)
     interpolate  :      0.54s CPU      0.54s WALL (      16 calls)
 
     Parallel routines
     fft_scatt_xy :    259.68s CPU    261.16s WALL (  386394 calls)
     fft_scatt_yz :    173.36s CPU    174.71s WALL (  386394 calls)
 
     PWSCF        :  27m44.91s CPU  28m 7.69s WALL

 
   This run was terminated on:  15:14:30  19Nov2021            

=------------------------------------------------------------------------------=
   JOB DONE.
=------------------------------------------------------------------------------=
