
     Program PWSCF v.6.7MaX starts on 19Nov2021 at 14:46:22 

     This program is part of the open-source Quantum ESPRESSO suite
     for quantum simulation of materials; please cite
         "P. Giannozzi et al., J. Phys.:Condens. Matter 21 395502 (2009);
         "P. Giannozzi et al., J. Phys.:Condens. Matter 29 465901 (2017);
          URL http://www.quantum-espresso.org", 
     in publications or presentations arising from this work. More details at
     http://www.quantum-espresso.org/quote

     Parallel version (MPI), running on    10 processors

     MPI processes distributed on     1 nodes
     R & G space division:  proc/nbgrp/npool/nimage =      10
     Waiting for input...
     Reading input from standard input

     Current dimensions of program PWSCF are:
     Max number of different atomic species (ntypx) = 10
     Max number of k-points (npk) =  40000
     Max angular momentum in pseudopotentials (lmaxx) =  3
     file Zr.pbe-spn-kjpaw_psl.1.0.0.UPF: wavefunction(s)  4S 4P renormalized
     file Te.pbe-n-kjpaw_psl.1.0.0.UPF: wavefunction(s)  5S 5P renormalized

     Subspace diagonalization in iterative solution of the eigenvalue problem:
     a serial algorithm will be used

     Message from routine setup:
     using ibrav=0 with symmetry is DISCOURAGED, use correct ibrav instead
 
     Parallelization info
     --------------------
     sticks:   dense  smooth     PW     G-vecs:    dense   smooth      PW
     Min         734     293     87               115340    29174    4753
     Max         735     295     88               115345    29176    4760
     Sum        7345    2937    873              1153415   291749   47557
 


     bravais-lattice index     =            0
     lattice parameter (alat)  =      15.5510  a.u.
     unit-cell volume          =    3018.5011 (a.u.)^3
     number of atoms/cell      =           12
     number of atomic types    =            2
     number of electrons       =        84.00
     number of Kohn-Sham states=           50
     kinetic-energy cutoff     =      80.0000  Ry
     charge density cutoff     =     800.0000  Ry
     scf convergence threshold =      1.0E-10
     mixing beta               =       0.7000
     number of iterations used =            8  plain     mixing
     Exchange-correlation= SLA  PW   PBX  PBC
                           (   1   4   3   4   0   0   0)

     celldm(1)=  15.551040  celldm(2)=   0.000000  celldm(3)=   0.000000
     celldm(4)=   0.000000  celldm(5)=   0.000000  celldm(6)=   0.000000

     crystal axes: (cart. coord. in units of alat)
               a(1) = (   0.246007  -0.969268   0.000000 )  
               a(2) = (   0.246007   0.969268   0.000000 )  
               a(3) = (   0.000000   0.000000   1.683031 )  

     reciprocal axes: (cart. coord. in units 2 pi/alat)
               b(1) = (  2.032465 -0.515853  0.000000 )  
               b(2) = (  2.032465  0.515853  0.000000 )  
               b(3) = (  0.000000  0.000000  0.594166 )  


     PseudoPot. # 1 for Zr read from file:
     pseudo/Zr.pbe-spn-kjpaw_psl.1.0.0.UPF
     MD5 check sum: 02112c41713a0468aff2bb39ef194e36
     Pseudo is Projector augmented-wave + core cor, Zval = 12.0
     Generated using &quot;atomic&quot; code by A. Dal Corso  v.6.2.2
     Shape of augmentation charge: PSQ
     Using radial grid of 1225 points,  6 beta functions with: 
                l(1) =   0
                l(2) =   0
                l(3) =   1
                l(4) =   1
                l(5) =   2
                l(6) =   2
     Q(r) pseudized with 0 coefficients 


     PseudoPot. # 2 for Te read from file:
     pseudo/Te.pbe-n-kjpaw_psl.1.0.0.UPF
     MD5 check sum: 66247bff2bd9dbf220fbb0bf5ab56e9d
     Pseudo is Projector augmented-wave + core cor, Zval =  6.0
     Generated using &quot;atomic&quot; code by A. Dal Corso  v.6.3
     Shape of augmentation charge: PSQ
     Using radial grid of 1245 points,  6 beta functions with: 
                l(1) =   0
                l(2) =   0
                l(3) =   1
                l(4) =   1
                l(5) =   2
                l(6) =   2
     Q(r) pseudized with 0 coefficients 


     atomic species   valence    mass     pseudopotential
        Zr            12.00    91.22000     Zr( 1.00)
        Te             6.00   127.60000     Te( 1.00)

      8 Sym. Ops., with inversion, found ( 4 have fractional translation)



   Cartesian axes

     site n.     atom                  positions (alat units)
         1           Zr  tau(   1) = (   0.0000000   0.6076116   0.4207578  )
         2           Zr  tau(   2) = (   0.2460067   0.3616566   1.2622733  )
         3           Te  tau(   3) = (   0.2460067   0.3342887   0.4207578  )
         4           Te  tau(   4) = (   0.0000000   0.6349795   1.2622733  )
         5           Te  tau(   5) = (   0.2460067   0.8089135   0.2514406  )
         6           Te  tau(   6) = (   0.0000000   0.1603546   1.4315904  )
         7           Te  tau(   7) = (   0.2460067   0.8089135   0.5900749  )
         8           Te  tau(   8) = (   0.0000000   0.1603546   1.0929562  )
         9           Te  tau(   9) = (   0.0000000   0.4113810   0.7275328  )
        10           Te  tau(  10) = (   0.2460067   0.5578871   0.9554983  )
        11           Te  tau(  11) = (   0.0000000   0.4113810   0.1139827  )
        12           Te  tau(  12) = (   0.2460067   0.5578871   1.5690483  )

     number of k points=    63  Methfessel-Paxton smearing, width (Ry)=  0.0030
                       cart. coord. in units 2pi/alat
        k(    1) = (   0.0000000   0.0000000   0.0000000), wk =   0.0078125
        k(    2) = (   0.0000000   0.0000000   0.1485415), wk =   0.0156250
        k(    3) = (   0.0000000   0.0000000  -0.2970830), wk =   0.0078125
        k(    4) = (   0.2540581   0.0644816   0.0000000), wk =   0.0312500
        k(    5) = (   0.2540581   0.0644816   0.1485415), wk =   0.0625000
        k(    6) = (   0.2540581   0.0644816  -0.2970830), wk =   0.0312500
        k(    7) = (   0.5081162   0.1289633   0.0000000), wk =   0.0312500
        k(    8) = (   0.5081162   0.1289633   0.1485415), wk =   0.0625000
        k(    9) = (   0.5081162   0.1289633  -0.2970830), wk =   0.0312500
        k(   10) = (   0.7621743   0.1934449   0.0000000), wk =   0.0312500
        k(   11) = (   0.7621743   0.1934449   0.1485415), wk =   0.0625000
        k(   12) = (   0.7621743   0.1934449  -0.2970830), wk =   0.0312500
        k(   13) = (  -1.0162324  -0.2579266   0.0000000), wk =   0.0156250
        k(   14) = (  -1.0162324  -0.2579266   0.1485415), wk =   0.0312500
        k(   15) = (  -1.0162324  -0.2579266  -0.2970830), wk =   0.0156250
        k(   16) = (   0.5081162   0.0000000   0.0000000), wk =   0.0156250
        k(   17) = (   0.5081162   0.0000000   0.1485415), wk =   0.0312500
        k(   18) = (   0.5081162   0.0000000  -0.2970830), wk =   0.0156250
        k(   19) = (   0.7621743   0.0644816   0.0000000), wk =   0.0312500
        k(   20) = (   0.7621743   0.0644816   0.1485415), wk =   0.0625000
        k(   21) = (   0.7621743   0.0644816  -0.2970830), wk =   0.0312500
        k(   22) = (   1.0162324   0.1289633   0.0000000), wk =   0.0312500
        k(   23) = (   1.0162324   0.1289633   0.1485415), wk =   0.0625000
        k(   24) = (   1.0162324   0.1289633  -0.2970830), wk =   0.0312500
        k(   25) = (  -0.7621743  -0.3224082   0.0000000), wk =   0.0312500
        k(   26) = (  -0.7621743  -0.3224082   0.1485415), wk =   0.0625000
        k(   27) = (  -0.7621743  -0.3224082  -0.2970830), wk =   0.0312500
        k(   28) = (  -0.5081162  -0.2579266   0.0000000), wk =   0.0312500
        k(   29) = (  -0.5081162  -0.2579266   0.1485415), wk =   0.0625000
        k(   30) = (  -0.5081162  -0.2579266  -0.2970830), wk =   0.0312500
        k(   31) = (  -0.2540581  -0.1934449   0.0000000), wk =   0.0312500
        k(   32) = (  -0.2540581  -0.1934449   0.1485415), wk =   0.0625000
        k(   33) = (  -0.2540581  -0.1934449  -0.2970830), wk =   0.0312500
        k(   34) = (   0.0000000  -0.1289633   0.0000000), wk =   0.0156250
        k(   35) = (   0.0000000  -0.1289633   0.1485415), wk =   0.0312500
        k(   36) = (   0.0000000  -0.1289633  -0.2970830), wk =   0.0156250
        k(   37) = (   1.0162324   0.0000000   0.0000000), wk =   0.0156250
        k(   38) = (   1.0162324   0.0000000   0.1485415), wk =   0.0312500
        k(   39) = (   1.0162324   0.0000000  -0.2970830), wk =   0.0156250
        k(   40) = (   1.2702905   0.0644816   0.0000000), wk =   0.0312500
        k(   41) = (   1.2702905   0.0644816   0.1485415), wk =   0.0625000
        k(   42) = (   1.2702905   0.0644816  -0.2970830), wk =   0.0312500
        k(   43) = (  -0.5081162  -0.3868899   0.0000000), wk =   0.0312500
        k(   44) = (  -0.5081162  -0.3868899   0.1485415), wk =   0.0625000
        k(   45) = (  -0.5081162  -0.3868899  -0.2970830), wk =   0.0312500
        k(   46) = (  -0.2540581  -0.3224082   0.0000000), wk =   0.0312500
        k(   47) = (  -0.2540581  -0.3224082   0.1485415), wk =   0.0625000
        k(   48) = (  -0.2540581  -0.3224082  -0.2970830), wk =   0.0312500
        k(   49) = (   0.0000000  -0.2579266   0.0000000), wk =   0.0156250
        k(   50) = (   0.0000000  -0.2579266   0.1485415), wk =   0.0312500
        k(   51) = (   0.0000000  -0.2579266  -0.2970830), wk =   0.0156250
        k(   52) = (   1.5243485   0.0000000   0.0000000), wk =   0.0156250
        k(   53) = (   1.5243485   0.0000000   0.1485415), wk =   0.0312500
        k(   54) = (   1.5243485   0.0000000  -0.2970830), wk =   0.0156250
        k(   55) = (  -0.2540581  -0.4513715   0.0000000), wk =   0.0312500
        k(   56) = (  -0.2540581  -0.4513715   0.1485415), wk =   0.0625000
        k(   57) = (  -0.2540581  -0.4513715  -0.2970830), wk =   0.0312500
        k(   58) = (   0.0000000  -0.3868899   0.0000000), wk =   0.0156250
        k(   59) = (   0.0000000  -0.3868899   0.1485415), wk =   0.0312500
        k(   60) = (   0.0000000  -0.3868899  -0.2970830), wk =   0.0156250
        k(   61) = (  -2.0324647   0.0000000   0.0000000), wk =   0.0078125
        k(   62) = (  -2.0324647   0.0000000   0.1485415), wk =   0.0156250
        k(   63) = (  -2.0324647   0.0000000  -0.2970830), wk =   0.0078125

     Dense  grid:  1153415 G-vectors     FFT dimensions: ( 144, 144, 240)

     Smooth grid:   291749 G-vectors     FFT dimensions: (  90,  90, 150)

     Estimated max dynamical RAM per process >     657.19 MB

     Estimated total dynamical RAM >       6.42 GB

     Initial potential from superposition of free atoms

     starting charge   83.99353, renormalised to   84.00000
     Starting wfcs are   66 randomized atomic wfcs
     Checking if some PAW data can be deallocated... 

     total cpu time spent up to now is       42.9 secs

     Self-consistent Calculation

     iteration #  1     ecut=    80.00 Ry     beta= 0.70
     Davidson diagonalization with overlap
     ethr =  1.00E-02,  avg # of iterations =  2.0

     Threshold (ethr) on eigenvalues was too large:
     Diagonalizing with lowered threshold

     Davidson diagonalization with overlap
     ethr =  4.01E-04,  avg # of iterations =  4.0

     total cpu time spent up to now is      201.7 secs

     total energy              =   -4240.73035584 Ry
     estimated scf accuracy    <       0.43085773 Ry

     iteration #  2     ecut=    80.00 Ry     beta= 0.70
     Davidson diagonalization with overlap
     ethr =  5.13E-04,  avg # of iterations =  7.5

     total cpu time spent up to now is      313.6 secs

     total energy              =   -4240.63687901 Ry
     estimated scf accuracy    <       2.09347064 Ry

     iteration #  3     ecut=    80.00 Ry     beta= 0.70
     Davidson diagonalization with overlap
     ethr =  5.13E-04,  avg # of iterations =  5.2

     total cpu time spent up to now is      408.6 secs

     total energy              =   -4240.93254302 Ry
     estimated scf accuracy    <       0.01355969 Ry

     iteration #  4     ecut=    80.00 Ry     beta= 0.70
     Davidson diagonalization with overlap
     c_bands:  1 eigenvalues not converged
     c_bands:  2 eigenvalues not converged
     c_bands:  1 eigenvalues not converged
     c_bands:  2 eigenvalues not converged
     c_bands:  2 eigenvalues not converged
     c_bands:  1 eigenvalues not converged
     c_bands:  1 eigenvalues not converged
     c_bands:  1 eigenvalues not converged
     c_bands:  1 eigenvalues not converged
     c_bands:  1 eigenvalues not converged
     c_bands:  2 eigenvalues not converged
     c_bands:  2 eigenvalues not converged
     c_bands:  1 eigenvalues not converged
     c_bands:  1 eigenvalues not converged
     c_bands:  1 eigenvalues not converged
     ethr =  1.61E-05,  avg # of iterations = 16.7

     total cpu time spent up to now is      581.1 secs

     total energy              =   -4240.94736174 Ry
     estimated scf accuracy    <       0.08358964 Ry

     iteration #  5     ecut=    80.00 Ry     beta= 0.70
     Davidson diagonalization with overlap
     ethr =  1.61E-05,  avg # of iterations =  6.9

     total cpu time spent up to now is      670.8 secs

     total energy              =   -4240.94930878 Ry
     estimated scf accuracy    <       0.01712032 Ry

     iteration #  6     ecut=    80.00 Ry     beta= 0.70
     Davidson diagonalization with overlap
     ethr =  1.61E-05,  avg # of iterations =  3.7

     total cpu time spent up to now is      747.3 secs

     total energy              =   -4240.95068352 Ry
     estimated scf accuracy    <       0.00172343 Ry

     iteration #  7     ecut=    80.00 Ry     beta= 0.70
     Davidson diagonalization with overlap
     c_bands:  1 eigenvalues not converged
     c_bands:  1 eigenvalues not converged
     c_bands:  1 eigenvalues not converged
     c_bands:  1 eigenvalues not converged
     c_bands:  1 eigenvalues not converged
     c_bands:  1 eigenvalues not converged
     ethr =  2.05E-06,  avg # of iterations = 13.8

     total cpu time spent up to now is      877.9 secs

     total energy              =   -4240.95166125 Ry
     estimated scf accuracy    <       0.00224119 Ry

     iteration #  8     ecut=    80.00 Ry     beta= 0.70
     Davidson diagonalization with overlap
     ethr =  2.05E-06,  avg # of iterations =  2.3

     total cpu time spent up to now is      948.1 secs

     total energy              =   -4240.95169979 Ry
     estimated scf accuracy    <       0.00037999 Ry

     iteration #  9     ecut=    80.00 Ry     beta= 0.70
     Davidson diagonalization with overlap
     ethr =  4.52E-07,  avg # of iterations =  6.4

     total cpu time spent up to now is     1036.4 secs

     total energy              =   -4240.95180835 Ry
     estimated scf accuracy    <       0.00002025 Ry

     iteration # 10     ecut=    80.00 Ry     beta= 0.70
     Davidson diagonalization with overlap
     ethr =  2.41E-08,  avg # of iterations =  5.9

     total cpu time spent up to now is     1125.8 secs

     total energy              =   -4240.95181453 Ry
     estimated scf accuracy    <       0.00001307 Ry

     iteration # 11     ecut=    80.00 Ry     beta= 0.70
     Davidson diagonalization with overlap
     ethr =  1.56E-08,  avg # of iterations =  4.5

     total cpu time spent up to now is     1204.8 secs

     total energy              =   -4240.95181723 Ry
     estimated scf accuracy    <       0.00000005 Ry

     iteration # 12     ecut=    80.00 Ry     beta= 0.70
     Davidson diagonalization with overlap
     ethr =  6.51E-11,  avg # of iterations = 11.8

     total cpu time spent up to now is     1355.7 secs

     total energy              =   -4240.95181749 Ry
     estimated scf accuracy    <       0.00000014 Ry

     iteration # 13     ecut=    80.00 Ry     beta= 0.70
     Davidson diagonalization with overlap
     ethr =  6.51E-11,  avg # of iterations =  3.9

     total cpu time spent up to now is     1440.3 secs

     total energy              =   -4240.95181751 Ry
     estimated scf accuracy    <          3.3E-10 Ry

     iteration # 14     ecut=    80.00 Ry     beta= 0.70
     Davidson diagonalization with overlap
     ethr =  3.88E-13,  avg # of iterations = 12.7

     total cpu time spent up to now is     1611.6 secs

     total energy              =   -4240.95181751 Ry
     estimated scf accuracy    <       0.00000001 Ry

     iteration # 15     ecut=    80.00 Ry     beta= 0.70
     Davidson diagonalization with overlap
     ethr =  3.88E-13,  avg # of iterations =  6.6

     total cpu time spent up to now is     1722.5 secs

     total energy              =   -4240.95181751 Ry
     estimated scf accuracy    <          1.5E-09 Ry

     iteration # 16     ecut=    80.00 Ry     beta= 0.70
     Davidson diagonalization with overlap
     ethr =  3.88E-13,  avg # of iterations =  5.6

     total cpu time spent up to now is     1817.9 secs

     End of self-consistent calculation

          k = 0.0000 0.0000 0.0000 ( 36359 PWs)   bands (ev):

   -44.1383 -44.1383 -22.2701 -22.2700 -22.1737 -22.1737 -22.0650 -22.0649
    -7.7667  -7.3089  -7.1378  -6.8275  -6.3940  -5.3904  -5.0012  -4.8620
    -4.8096  -3.8488   0.3809   0.7413   0.7510   1.0995   1.5065   1.5190
     2.3555   2.3831   2.7020   2.7636   2.9728   3.0136   3.1972   3.4554
     3.6455   3.7327   3.9251   4.0592   4.2002   4.3286   4.3318   4.6537
     4.9359   5.5258   5.6221   5.7535   5.8375   5.9765   6.2483   6.8328
     6.9622   7.2743

          k = 0.0000 0.0000 0.1485 ( 36415 PWs)   bands (ev):

   -44.1383 -44.1383 -22.2701 -22.2700 -22.1737 -22.1737 -22.0650 -22.0649
    -7.7293  -7.4532  -7.0096  -6.8424  -6.3082  -5.6841  -4.8687  -4.8192
    -4.6771  -3.9656   0.4392   0.7780   0.9042   1.0291   1.0639   1.9492
     2.0818   2.3843   2.5900   2.8529   2.9616   3.1220   3.3755   3.3892
     3.6829   3.8049   3.9111   4.0573   4.1434   4.3477   4.3484   4.6603
     4.8198   5.0209   5.7773   5.9770   5.9773   5.9890   6.5879   6.6257
     6.7880   7.2243

          k = 0.0000 0.0000-0.2971 ( 36410 PWs)   bands (ev):

   -44.1383 -44.1383 -22.2700 -22.2700 -22.1737 -22.1737 -22.0649 -22.0649
    -7.6203  -7.6203  -6.8950  -6.8950  -6.0527  -6.0527  -4.8424  -4.8424
    -4.2734  -4.2734   0.6451   0.6451   0.9014   0.9014   1.3831   1.3831
     2.4670   2.4670   2.6640   2.6640   2.9248   2.9248   3.4540   3.4540
     3.8714   3.8714   3.9800   3.9800   4.3413   4.3413   4.3978   4.3978
     4.6995   4.6995   5.9514   5.9514   6.2223   6.2223   6.3983   6.3983
     7.0594   7.0594

          k = 0.2541 0.0645 0.0000 ( 36396 PWs)   bands (ev):

   -44.1379 -44.1379 -22.2681 -22.2681 -22.1836 -22.1836 -22.0638 -22.0637
    -7.6507  -7.1999  -7.0636  -6.7804  -6.3322  -5.3481  -5.0069  -4.8198
    -4.7665  -3.9950   0.4676   0.8724   0.8815   1.2176   1.3598   1.3672
     1.8841   1.9022   2.1296   2.5530   2.5836   3.1088   3.3655   3.7056
     3.7281   3.7676   3.7699   3.8011   4.0132   4.2488   4.2495   4.2640
     4.4814   4.6173   5.7722   5.9801   6.2410   6.5641   6.6127   6.8040
     7.0063   7.1589

          k = 0.2541 0.0645 0.1485 ( 36423 PWs)   bands (ev):

   -44.1379 -44.1379 -22.2681 -22.2681 -22.1836 -22.1836 -22.0638 -22.0637
    -7.6142  -7.3447  -6.9413  -6.7937  -6.2426  -5.6297  -4.8458  -4.7781
    -4.6877  -4.0885   0.5135   0.9107   0.9582   0.9741   1.1685   1.5081
     1.8117   2.2259   2.3245   2.5352   2.5636   2.9400   3.3074   3.3276
     3.5943   3.7365   3.9088   3.9181   4.0182   4.1289   4.2860   4.3179
     4.6827   4.9219   5.8262   5.8895   6.1885   6.2679   6.4432   6.7152
     7.2363   7.3075

          k = 0.2541 0.0645-0.2971 ( 36436 PWs)   bands (ev):

   -44.1379 -44.1379 -22.2681 -22.2681 -22.1836 -22.1836 -22.0637 -22.0637
    -7.5077  -7.5077  -6.8401  -6.8401  -5.9867  -5.9867  -4.8066  -4.8066
    -4.3436  -4.3436   0.6766   0.6766   1.0098   1.0098   1.2132   1.2132
     2.2409   2.2409   2.4817   2.4817   2.6756   2.6756   3.1540   3.1540
     3.6165   3.6165   3.9121   3.9121   4.0821   4.0821   4.3208   4.3208
     5.0840   5.0840   5.7658   5.7658   6.1240   6.1240   6.4481   6.4481
     7.4246   7.4246

          k = 0.5081 0.1290 0.0000 ( 36499 PWs)   bands (ev):

   -44.1370 -44.1370 -22.2634 -22.2634 -22.2072 -22.2072 -22.0609 -22.0608
    -7.3216  -6.8887  -6.8839  -6.6535  -6.1385  -5.2578  -5.0824  -4.7095
    -4.6602  -4.4338   0.5318   0.5782   0.6705   1.2193   1.2334   1.4887
     1.6831   1.7158   2.0318   2.0876   2.1668   2.2480   2.3770   3.3410
     3.4205   3.4887   3.4984   3.5905   3.7702   3.8980   3.9004   4.1671
     4.4825   5.1498   5.5055   6.0081   6.0219   6.5732   6.5882   6.9113
     7.4311   7.5656

          k = 0.5081 0.1290 0.1485 ( 36476 PWs)   bands (ev):

   -44.1370 -44.1370 -22.2634 -22.2634 -22.2072 -22.2072 -22.0609 -22.0608
    -7.2883  -7.0469  -6.7626  -6.6633  -6.0449  -5.4987  -4.9026  -4.6889
    -4.6669  -4.4644   0.4818   0.6796   0.7820   1.0387   1.2509   1.4071
     1.4718   1.5798   2.0247   2.0911   2.3321   2.4857   2.7986   3.3638
     3.4146   3.4319   3.5123   3.5811   3.6853   3.7486   3.8469   4.2242
     4.3403   4.5324   6.0994   6.1506   6.2743   6.5761   6.6304   6.7779
     7.2691   7.4993

          k = 0.5081 0.1290-0.2971 ( 36466 PWs)   bands (ev):

   -44.1370 -44.1370 -22.2634 -22.2634 -22.2072 -22.2072 -22.0609 -22.0609
    -7.1920  -7.1920  -6.6953  -6.6953  -5.8048  -5.8048  -4.7635  -4.7635
    -4.5569  -4.5569   0.5690   0.5690   1.0550   1.0550   1.1527   1.1527
     1.3993   1.3993   2.0581   2.0581   2.7287   2.7287   3.1455   3.1455
     3.3880   3.3880   3.5514   3.5514   3.7030   3.7030   3.8245   3.8245
     4.3067   4.3067   6.3402   6.3402   6.5510   6.5510   6.8102   6.8102
     7.1177   7.1177

          k = 0.7622 0.1934 0.0000 ( 36521 PWs)   bands (ev):

   -44.1361 -44.1361 -22.2586 -22.2586 -22.2308 -22.2308 -22.0580 -22.0580
    -6.8911  -6.7307  -6.4263  -6.4010  -5.8271  -5.3524  -5.2366  -5.0894
    -4.5863  -4.5505   0.0132   0.1233   0.5771   1.0553   1.0820   1.2572
     1.4792   1.6010   1.9460   2.0298   2.2582   2.4091   2.4096   2.7773
     2.8497   3.2635   3.3266   3.4175   3.6231   3.6947   3.7128   3.7882
     3.8886   4.5629   5.8442   6.2682   6.3337   6.7986   6.8028   6.9033
     7.2705   7.6009

          k = 0.7622 0.1934 0.1485 ( 36503 PWs)   bands (ev):

   -44.1361 -44.1361 -22.2586 -22.2586 -22.2308 -22.2308 -22.0580 -22.0580
    -6.8701  -6.7563  -6.4283  -6.4140  -5.7550  -5.4343  -5.1998  -5.1060
    -4.5769  -4.5524   0.0515   0.2618   0.4479   0.9332   1.0567   1.2206
     1.4933   1.6376   1.8387   2.0690   2.1345   2.6302   2.6920   2.8209
     2.8788   3.1069   3.2716   3.3904   3.5210   3.6196   3.6537   3.9252
     3.9764   4.5868   5.5766   6.3120   6.6156   6.6928   6.8564   6.9525
     7.0469   7.5431

          k = 0.7622 0.1934-0.2971 ( 36522 PWs)   bands (ev):

   -44.1361 -44.1361 -22.2586 -22.2586 -22.2308 -22.2308 -22.0580 -22.0580
    -6.8157  -6.8157  -6.4275  -6.4275  -5.5952  -5.5952  -5.1480  -5.1480
    -4.5611  -4.5611   0.2082   0.2082   0.6013   0.6013   1.0796   1.0796
     1.5702   1.5702   2.0083   2.0083   2.3693   2.3693   2.8084   2.8084
     2.9936   2.9936   3.3466   3.3466   3.5889   3.5889   3.8505   3.8505
     4.1217   4.1217   6.0827   6.0827   6.4207   6.4207   6.9345   6.9345
     7.3851   7.3851

          k =-1.0162-0.2579 0.0000 ( 36506 PWs)   bands (ev):

   -44.1357 -44.1357 -22.2564 -22.2564 -22.2406 -22.2406 -22.0568 -22.0568
    -6.7033  -6.6833  -5.9109  -5.8998  -5.8439  -5.8351  -5.3965  -5.3959
    -4.5291  -4.5057   0.0205   0.0444   0.3521   0.3731   1.0119   1.0211
     1.4675   1.6714   2.2345   2.3826   2.3893   2.3942   2.7915   2.8076
     2.8149   2.8681   3.2306   3.2623   3.3132   3.4396   3.5362   3.7194
     3.7501   4.0294   6.4821   6.5068   6.5310   6.6115   6.9927   7.0824
     7.0912   7.1027

          k =-1.0162-0.2579 0.1485 ( 36506 PWs)   bands (ev):

   -44.1357 -44.1357 -22.2564 -22.2564 -22.2406 -22.2406 -22.0568 -22.0568
    -6.6996  -6.6854  -5.9289  -5.9206  -5.8251  -5.8195  -5.3917  -5.3914
    -4.5297  -4.5132  -0.0753  -0.0678   0.5761   0.5828   1.0146   1.0349
     1.4644   1.5921   1.9613   2.0526   2.3767   2.3945   2.7194   2.7195
     2.9432   3.0115   3.1259   3.1980   3.5537   3.5713   3.6832   3.7507
     4.0413   4.1216   5.9573   5.9711   6.4534   6.5284   7.0414   7.0711
     7.2915   7.3310

          k =-1.0162-0.2579-0.2971 ( 36528 PWs)   bands (ev):

   -44.1357 -44.1357 -22.2564 -22.2564 -22.2406 -22.2406 -22.0568 -22.0568
    -6.6917  -6.6917  -5.9390  -5.9390  -5.8102  -5.8102  -5.3868  -5.3868
    -4.5255  -4.5255  -0.1344  -0.1344   0.8680   0.8680   0.9410   0.9410
     1.5413   1.5413   1.6879   1.6879   2.3765   2.3765   2.7733   2.7733
     2.9205   2.9205   3.1662   3.1662   3.6249   3.6249   3.7965   3.7965
     4.4346   4.4346   5.4717   5.4717   6.4108   6.4108   7.0798   7.0798
     7.3824   7.3824

          k = 0.5081 0.0000 0.0000 ( 36503 PWs)   bands (ev):

   -44.1370 -44.1370 -22.2634 -22.2634 -22.2072 -22.2072 -22.0609 -22.0608
    -7.3264  -6.8901  -6.8848  -6.6483  -6.1347  -5.2582  -5.0794  -4.7044
    -4.6665  -4.4334   0.5379   0.5808   0.6627   1.1936   1.2284   1.4665
     1.6851   1.7185   2.0180   2.1203   2.1251   2.2419   2.3742   3.3276
     3.4455   3.4545   3.5581   3.5959   3.7763   3.8859   3.9483   4.2042
     4.4845   5.1474   5.5113   5.9877   6.0566   6.5339   6.5371   6.9468
     7.4508   7.5775

          k = 0.5081 0.0000 0.1485 ( 36453 PWs)   bands (ev):

   -44.1370 -44.1370 -22.2634 -22.2634 -22.2072 -22.2072 -22.0609 -22.0608
    -7.2929  -7.0502  -6.7601  -6.6581  -6.0426  -5.4989  -4.8976  -4.6908
    -4.6668  -4.4654   0.4825   0.6749   0.7843   1.0408   1.2318   1.4197
     1.4324   1.5659   2.0210   2.0987   2.3460   2.4487   2.7932   3.3532
     3.4259   3.4621   3.4999   3.5886   3.6802   3.8168   3.8384   4.2619
     4.3537   4.5282   6.0953   6.1618   6.2894   6.5266   6.5941   6.8094
     7.2917   7.5064

          k = 0.5081 0.0000-0.2971 ( 36452 PWs)   bands (ev):

   -44.1370 -44.1370 -22.2634 -22.2634 -22.2072 -22.2072 -22.0609 -22.0609
    -7.1963  -7.1963  -6.6906  -6.6906  -5.8044  -5.8044  -4.7594  -4.7594
    -4.5597  -4.5597   0.5656   0.5656   1.0551   1.0551   1.1670   1.1670
     1.3586   1.3586   2.0596   2.0596   2.7198   2.7198   3.1310   3.1310
     3.3864   3.3864   3.5788   3.5788   3.7270   3.7270   3.8257   3.8257
     4.3285   4.3285   6.3560   6.3560   6.5152   6.5152   6.8269   6.8269
     7.1191   7.1191

          k = 0.7622 0.0645 0.0000 ( 36505 PWs)   bands (ev):

   -44.1361 -44.1361 -22.2586 -22.2586 -22.2308 -22.2308 -22.0580 -22.0580
    -6.9000  -6.7286  -6.4178  -6.4028  -5.8267  -5.3488  -5.2373  -5.0888
    -4.5777  -4.5601   0.0086   0.1340   0.5959   1.0699   1.0871   1.2715
     1.4402   1.5612   1.9198   2.0467   2.2545   2.3568   2.3912   2.7510
     2.8372   3.3152   3.3504   3.4403   3.6228   3.6380   3.7368   3.8267
     3.9061   4.6002   5.8420   6.2739   6.3116   6.7693   6.8604   6.8611
     7.2889   7.6114

          k = 0.7622 0.0645 0.1485 ( 36509 PWs)   bands (ev):

   -44.1361 -44.1361 -22.2586 -22.2586 -22.2308 -22.2308 -22.0580 -22.0580
    -6.8783  -6.7573  -6.4198  -6.4124  -5.7555  -5.4337  -5.1982  -5.1051
    -4.5710  -4.5592   0.0534   0.2649   0.4573   0.9416   1.0659   1.2362
     1.4589   1.6377   1.8654   1.9972   2.0643   2.6502   2.6740   2.8028
     2.8627   3.1091   3.3309   3.4015   3.5074   3.6248   3.6660   3.9459
     4.0114   4.5847   5.6024   6.2924   6.6246   6.6905   6.8720   6.9494
     7.0225   7.5621

          k = 0.7622 0.0645-0.2971 ( 36472 PWs)   bands (ev):

   -44.1361 -44.1361 -22.2586 -22.2586 -22.2308 -22.2308 -22.0580 -22.0580
    -6.8214  -6.8214  -6.4209  -6.4209  -5.5961  -5.5961  -5.1462  -5.1462
    -4.5614  -4.5614   0.2144   0.2144   0.5953   0.5953   1.1033   1.1033
     1.5637   1.5637   1.9594   1.9594   2.3404   2.3404   2.8081   2.8081
     2.9827   2.9827   3.4084   3.4084   3.5858   3.5858   3.8377   3.8377
     4.1434   4.1434   6.1077   6.1077   6.4216   6.4216   6.9014   6.9014
     7.4122   7.4122

          k = 1.0162 0.1290 0.0000 ( 36514 PWs)   bands (ev):

   -44.1357 -44.1357 -22.2564 -22.2564 -22.2406 -22.2406 -22.0568 -22.0568
    -6.7033  -6.6833  -5.9106  -5.9001  -5.8439  -5.8351  -5.3965  -5.3958
    -4.5291  -4.5057   0.0146   0.0504   0.3474   0.3779   1.0060   1.0283
     1.4731   1.6624   2.2351   2.3788   2.3798   2.3980   2.7885   2.8056
     2.8288   2.8796   3.2444   3.2467   3.3054   3.4296   3.5672   3.7055
     3.7309   4.0421   6.4733   6.5163   6.5261   6.6176   7.0086   7.0840
     7.0925   7.0933

          k = 1.0162 0.1290 0.1485 ( 36524 PWs)   bands (ev):

   -44.1357 -44.1357 -22.2564 -22.2564 -22.2406 -22.2406 -22.0568 -22.0568
    -6.6996  -6.6854  -5.9287  -5.9207  -5.8251  -5.8195  -5.3918  -5.3912
    -4.5297  -4.5132  -0.0774  -0.0659   0.5771   0.5825   1.0177   1.0324
     1.4694   1.5875   1.9728   2.0371   2.3739   2.3896   2.6751   2.7710
     2.9586   3.0239   3.1102   3.1925   3.5318   3.6082   3.6767   3.7373
     4.0240   4.1411   5.9486   5.9828   6.4504   6.5310   7.0477   7.0699
     7.2973   7.3256

          k = 1.0162 0.1290-0.2971 ( 36516 PWs)   bands (ev):

   -44.1357 -44.1357 -22.2564 -22.2564 -22.2406 -22.2406 -22.0568 -22.0568
    -6.6917  -6.6917  -5.9390  -5.9390  -5.8102  -5.8102  -5.3868  -5.3868
    -4.5255  -4.5255  -0.1345  -0.1345   0.8682   0.8682   0.9415   0.9415
     1.5419   1.5419   1.6888   1.6888   2.3670   2.3670   2.7576   2.7576
     2.9691   2.9691   3.1404   3.1404   3.6293   3.6293   3.7917   3.7917
     4.4351   4.4351   5.4739   5.4739   6.4103   6.4103   7.0816   7.0816
     7.3828   7.3828

          k =-0.7622-0.3224 0.0000 ( 36511 PWs)   bands (ev):

   -44.1361 -44.1361 -22.2586 -22.2586 -22.2308 -22.2308 -22.0580 -22.0580
    -6.8771  -6.7349  -6.4384  -6.3985  -5.8276  -5.3576  -5.2355  -5.0902
    -4.5931  -4.5422   0.0200   0.1085   0.5514   1.0251   1.0990   1.2392
     1.5020   1.6648   2.0004   2.0082   2.2935   2.4355   2.4403   2.8140
     2.8639   3.1965   3.3072   3.4264   3.5831   3.6615   3.6954   3.8397
     3.8478   4.5009   5.8474   6.2576   6.3772   6.7208   6.8435   6.9696
     7.2362   7.5897

          k =-0.7622-0.3224 0.1485 ( 36492 PWs)   bands (ev):

   -44.1361 -44.1361 -22.2586 -22.2586 -22.2308 -22.2308 -22.0580 -22.0580
    -6.8573  -6.7558  -6.4402  -6.4169  -5.7543  -5.4352  -5.2021  -5.1073
    -4.5816  -4.5466   0.0479   0.2592   0.4338   0.9171   1.0579   1.1993
     1.5334   1.6376   1.8195   2.1745   2.2235   2.6124   2.6996   2.8430
     2.8958   3.1257   3.1977   3.3763   3.4779   3.6137   3.6770   3.8837
     3.9306   4.5884   5.5420   6.3436   6.5904   6.6936   6.8314   6.9903
     7.0748   7.5078

          k =-0.7622-0.3224-0.2971 ( 36508 PWs)   bands (ev):

   -44.1361 -44.1361 -22.2586 -22.2586 -22.2308 -22.2308 -22.0580 -22.0580
    -6.8074  -6.8074  -6.4373  -6.4373  -5.5938  -5.5938  -5.1504  -5.1504
    -4.5607  -4.5607   0.1994   0.1994   0.6096   0.6096   1.0518   1.0518
     1.5782   1.5782   2.0628   2.0628   2.4301   2.4301   2.8104   2.8104
     3.0091   3.0091   3.2591   3.2591   3.5889   3.5889   3.8552   3.8552
     4.0981   4.0981   6.0499   6.0499   6.4179   6.4179   6.9899   6.9899
     7.3389   7.3389

          k =-0.5081-0.2579 0.0000 ( 36480 PWs)   bands (ev):

   -44.1370 -44.1370 -22.2634 -22.2634 -22.2072 -22.2072 -22.0609 -22.0608
    -7.3096  -6.8862  -6.8819  -6.6658  -6.1481  -5.2567  -5.0899  -4.7173
    -4.6496  -4.4349   0.5178   0.5779   0.6784   1.2448   1.2958   1.5421
     1.6800   1.7141   2.0581   2.0674   2.1981   2.2727   2.3806   3.3702
     3.3787   3.4221   3.5254   3.5297   3.7437   3.8167   3.9138   4.0919
     4.4738   5.1535   5.4939   5.9285   6.0694   6.6723   6.7089   6.8266
     7.3727   7.5394

          k =-0.5081-0.2579 0.1485 ( 36485 PWs)   bands (ev):

   -44.1370 -44.1370 -22.2634 -22.2634 -22.2072 -22.2072 -22.0609 -22.0608
    -7.2765  -7.0386  -6.7693  -6.6758  -6.0507  -5.4982  -4.9143  -4.6853
    -4.6667  -4.4621   0.4804   0.6890   0.7753   1.0341   1.3025   1.4044
     1.5398   1.6228   2.0274   2.0794   2.3172   2.5498   2.8112   3.3285
     3.3881   3.4247   3.5238   3.5450   3.6302   3.7127   3.8371   4.1468
     4.2990   4.5398   6.0849   6.1409   6.2462   6.6790   6.7102   6.7322
     7.2090   7.4851

          k =-0.5081-0.2579-0.2971 ( 36478 PWs)   bands (ev):

   -44.1370 -44.1370 -22.2634 -22.2634 -22.2072 -22.2072 -22.0609 -22.0609
    -7.1812  -7.1812  -6.7070  -6.7070  -5.8059  -5.8059  -4.7729  -4.7729
    -4.5505  -4.5505   0.5766   0.5766   1.0542   1.0542   1.1293   1.1293
     1.4951   1.4951   2.0513   2.0513   2.7541   2.7541   3.1749   3.1749
     3.3812   3.3812   3.4625   3.4625   3.6863   3.6863   3.8155   3.8155
     4.2537   4.2537   6.3028   6.3028   6.6270   6.6270   6.7754   6.7754
     7.1211   7.1211

          k =-0.2541-0.1934 0.0000 ( 36410 PWs)   bands (ev):

   -44.1379 -44.1379 -22.2681 -22.2681 -22.1836 -22.1836 -22.0638 -22.0637
    -7.6424  -7.1984  -7.0567  -6.7898  -6.3461  -5.3486  -5.0144  -4.8276
    -4.7555  -3.9960   0.4947   0.8895   0.9434   1.2453   1.3578   1.4003
     1.9083   1.9243   2.1314   2.5195   2.5714   3.1740   3.3210   3.6279
     3.6589   3.7197   3.7623   3.8642   3.8790   4.2044   4.2243   4.2500
     4.4006   4.6146   5.8256   6.0038   6.2997   6.5997   6.6214   6.8163
     6.9932   7.0791

          k =-0.2541-0.1934 0.1485 ( 36427 PWs)   bands (ev):

   -44.1379 -44.1379 -22.2681 -22.2681 -22.1836 -22.1836 -22.0638 -22.0637
    -7.6060  -7.3387  -6.9423  -6.8028  -6.2527  -5.6308  -4.8640  -4.7720
    -4.6810  -4.0884   0.5375   0.9436   0.9735   1.0314   1.2006   1.5234
     1.8166   2.2288   2.3495   2.5191   2.5467   2.9229   3.3245   3.3679
     3.5889   3.6377   3.7610   3.8953   3.9763   4.1081   4.2455   4.2656
     4.6748   4.9114   5.8109   5.9117   6.1749   6.3330   6.5148   6.7192
     7.1949   7.2974

          k =-0.2541-0.1934-0.2971 ( 36422 PWs)   bands (ev):

   -44.1379 -44.1379 -22.2681 -22.2681 -22.1836 -22.1836 -22.0637 -22.0637
    -7.5001  -7.5001  -6.8472  -6.8472  -5.9907  -5.9907  -4.8119  -4.8119
    -4.3410  -4.3410   0.6950   0.6950   1.0730   1.0730   1.2215   1.2215
     2.2415   2.2415   2.4729   2.4729   2.6741   2.6741   3.1770   3.1770
     3.5773   3.5773   3.8130   3.8130   4.0659   4.0659   4.2663   4.2663
     5.0904   5.0904   5.7262   5.7262   6.1271   6.1271   6.5297   6.5297
     7.4024   7.4024

          k = 0.0000-0.1290 0.0000 ( 36417 PWs)   bands (ev):

   -44.1383 -44.1383 -22.2701 -22.2700 -22.1737 -22.1737 -22.0650 -22.0649
    -7.7623  -7.3081  -7.1331  -6.8326  -6.4027  -5.3912  -5.0054  -4.8680
    -4.8020  -3.8494   0.4017   0.7558   0.7828   1.1076   1.5175   1.5456
     2.3573   2.3840   2.7090   2.7624   2.9716   3.0196   3.2350   3.4373
     3.5892   3.7218   3.8177   4.0137   4.2003   4.2735   4.2844   4.6538
     4.9259   5.4877   5.6469   5.7610   5.8550   6.0235   6.2983   6.8178
     6.9625   7.2481

          k = 0.0000-0.1290 0.1485 ( 36419 PWs)   bands (ev):

   -44.1383 -44.1383 -22.2701 -22.2700 -22.1737 -22.1737 -22.0650 -22.0649
    -7.7250  -7.4500  -7.0092  -6.8472  -6.3148  -5.6851  -4.8795  -4.8148
    -4.6738  -3.9657   0.4583   0.8198   0.9155   1.0306   1.0853   1.9559
     2.0982   2.3863   2.5935   2.8544   2.9609   3.1353   3.3495   3.3916
     3.6746   3.7951   3.8111   3.9890   4.1411   4.2947   4.3047   4.6602
     4.8142   5.0106   5.7879   5.9815   5.9952   6.0220   6.6069   6.6255
     6.7889   7.2094

          k = 0.0000-0.1290-0.2971 ( 36464 PWs)   bands (ev):

   -44.1383 -44.1383 -22.2700 -22.2700 -22.1737 -22.1737 -22.0649 -22.0649
    -7.6163  -7.6163  -6.8983  -6.8983  -6.0557  -6.0557  -4.8451  -4.8451
    -4.2723  -4.2723   0.6671   0.6671   0.9238   0.9238   1.3910   1.3910
     2.4696   2.4696   2.6748   2.6748   2.9252   2.9252   3.4339   3.4339
     3.8233   3.8233   3.9733   3.9733   4.2477   4.2477   4.4148   4.4148
     4.6982   4.6982   5.9557   5.9557   6.2420   6.2420   6.4004   6.4004
     7.0593   7.0593

          k = 1.0162 0.0000 0.0000 ( 36499 PWs)   bands (ev):

   -44.1357 -44.1357 -22.2564 -22.2564 -22.2406 -22.2406 -22.0568 -22.0568
    -6.7033  -6.6833  -5.9103  -5.9004  -5.8439  -5.8351  -5.3966  -5.3958
    -4.5291  -4.5057   0.0102   0.0548   0.3439   0.3815   1.0028   1.0328
     1.4795   1.6527   2.2356   2.3697   2.3780   2.4008   2.7857   2.8034
     2.8379   2.8943   3.2458   3.2660   3.2784   3.4156   3.6093   3.6934
     3.7008   4.0538   6.4674   6.5216   6.5229   6.6233   7.0313   7.0756
     7.0856   7.0954

          k = 1.0162 0.0000 0.1485 ( 36485 PWs)   bands (ev):

   -44.1357 -44.1357 -22.2564 -22.2564 -22.2406 -22.2406 -22.0568 -22.0568
    -6.6996  -6.6854  -5.9286  -5.9209  -5.8250  -5.8196  -5.3919  -5.3912
    -4.5297  -4.5132  -0.0791  -0.0647   0.5782   0.5820   1.0237   1.0270
     1.4749   1.5824   2.0017   2.0040   2.3752   2.3809   2.6606   2.7892
     2.9804   3.0616   3.0652   3.1878   3.5234   3.6332   3.6757   3.7168
     4.0115   4.1559   5.9440   5.9904   6.4476   6.5334   7.0559   7.0667
     7.3089   7.3144

          k = 1.0162 0.0000-0.2971 ( 36514 PWs)   bands (ev):

   -44.1357 -44.1357 -22.2564 -22.2564 -22.2406 -22.2406 -22.0568 -22.0568
    -6.6917  -6.6917  -5.9390  -5.9390  -5.8102  -5.8102  -5.3868  -5.3868
    -4.5255  -4.5255  -0.1347  -0.1347   0.8684   0.8684   0.9419   0.9419
     1.5426   1.5426   1.6896   1.6896   2.3578   2.3578   2.7467   2.7467
     3.0366   3.0366   3.0908   3.0908   3.6338   3.6338   3.7867   3.7867
     4.4355   4.4355   5.4761   5.4761   6.4098   6.4098   7.0834   7.0834
     7.3832   7.3832

          k = 1.2703 0.0645 0.0000 ( 36468 PWs)   bands (ev):

   -44.1361 -44.1361 -22.2586 -22.2586 -22.2308 -22.2308 -22.0580 -22.0580
    -6.8659  -6.7391  -6.4470  -6.3967  -5.8281  -5.3613  -5.2348  -5.0908
    -4.5967  -4.5377   0.0249   0.0984   0.5337   1.0102   1.1109   1.2270
     1.5064   1.7107   1.9943   2.0539   2.3331   2.4341   2.4540   2.8414
     2.8692   3.1402   3.3283   3.4792   3.5304   3.5652   3.7002   3.8022
     3.9158   4.4462   5.8497   6.2540   6.4119   6.6619   6.8783   7.0273
     7.2006   7.5915

          k = 1.2703 0.0645 0.1485 ( 36490 PWs)   bands (ev):

   -44.1361 -44.1361 -22.2586 -22.2586 -22.2308 -22.2308 -22.0580 -22.0580
    -6.8472  -6.7562  -6.4487  -6.4191  -5.7538  -5.4358  -5.2037  -5.1082
    -4.5840  -4.5434   0.0449   0.2585   0.4233   0.9048   1.0645   1.1849
     1.5582   1.6372   1.8120   2.2513   2.2917   2.5971   2.6980   2.8535
     2.9089   3.1369   3.1651   3.3674   3.4405   3.5657   3.7512   3.8217
     3.9056   4.5884   5.5191   6.3709   6.5607   6.6933   6.8203   7.0331
     7.0896   7.4763

          k = 1.2703 0.0645-0.2971 ( 36480 PWs)   bands (ev):

   -44.1361 -44.1361 -22.2586 -22.2586 -22.2308 -22.2308 -22.0580 -22.0580
    -6.8012  -6.8012  -6.4444  -6.4444  -5.5929  -5.5929  -5.1522  -5.1522
    -4.5604  -4.5604   0.1932   0.1932   0.6152   0.6152   1.0354   1.0354
     1.5837   1.5837   2.0899   2.0899   2.4905   2.4905   2.8175   2.8175
     3.0184   3.0184   3.1892   3.1892   3.5881   3.5881   3.8479   3.8479
     4.0885   4.0885   6.0283   6.0283   6.4154   6.4154   7.0386   7.0386
     7.2970   7.2970

          k =-0.5081-0.3869 0.0000 ( 36463 PWs)   bands (ev):

   -44.1370 -44.1370 -22.2634 -22.2634 -22.2072 -22.2072 -22.0609 -22.0608
    -7.2969  -6.8848  -6.8799  -6.6774  -6.1579  -5.2556  -5.0974  -4.7220
    -4.6419  -4.4360   0.5045   0.5847   0.6731   1.2554   1.4084   1.5859
     1.6689   1.7152   2.0449   2.1071   2.2210   2.2831   2.3789   3.2606
     3.3944   3.4320   3.4511   3.5801   3.7021   3.7884   3.8272   4.0858
     4.4618   5.1531   5.4847   5.8376   6.1336   6.7415   6.7844   6.8298
     7.2907   7.5302

          k =-0.5081-0.3869 0.1485 ( 36477 PWs)   bands (ev):

   -44.1370 -44.1370 -22.2634 -22.2634 -22.2072 -22.2072 -22.0609 -22.0608
    -7.2641  -7.0301  -6.7771  -6.6880  -6.0565  -5.4976  -4.9254  -4.6832
    -4.6656  -4.4598   0.4795   0.6974   0.7652   1.0300   1.3633   1.4058
     1.5997   1.6866   2.0236   2.0737   2.3104   2.5908   2.8261   3.2197
     3.3889   3.4257   3.4651   3.5538   3.6272   3.7059   3.7889   4.1130
     4.2374   4.5457   6.0319   6.1594   6.2317   6.6290   6.7906   6.8554
     7.1323   7.4840

          k =-0.5081-0.3869-0.2971 ( 36492 PWs)   bands (ev):

   -44.1370 -44.1370 -22.2634 -22.2634 -22.2072 -22.2072 -22.0609 -22.0609
    -7.1698  -7.1698  -6.7194  -6.7194  -5.8068  -5.8068  -4.7818  -4.7818
    -4.5445  -4.5445   0.5837   0.5837   1.0528   1.0528   1.1128   1.1128
     1.6018   1.6018   2.0353   2.0353   2.7867   2.7867   3.1656   3.1656
     3.3409   3.3409   3.4259   3.4259   3.6842   3.6842   3.8006   3.8006
     4.2020   4.2020   6.2669   6.2669   6.6621   6.6621   6.7714   6.7714
     7.1388   7.1388

          k =-0.2541-0.3224 0.0000 ( 36485 PWs)   bands (ev):

   -44.1379 -44.1379 -22.2681 -22.2681 -22.1836 -22.1836 -22.0638 -22.0637
    -7.6302  -7.1964  -7.0475  -6.8020  -6.3667  -5.3494  -5.0255  -4.8326
    -4.7456  -3.9975   0.5207   0.9021   1.0664   1.2942   1.3522   1.4719
     1.9452   1.9586   2.1319   2.4435   2.5258   3.2524   3.2854   3.4501
     3.6123   3.6147   3.7436   3.8426   3.8981   4.1232   4.1577   4.2176
     4.3700   4.5911   5.9099   6.0260   6.3540   6.5812   6.7057   6.8323
     6.9227   7.0156

          k =-0.2541-0.3224 0.1485 ( 36445 PWs)   bands (ev):

   -44.1379 -44.1379 -22.2681 -22.2681 -22.1836 -22.1836 -22.0638 -22.0637
    -7.5940  -7.3301  -6.9446  -6.8151  -6.2672  -5.6321  -4.8851  -4.7672
    -4.6727  -4.0883   0.5590   0.9609   1.0008   1.1564   1.2768   1.5470
     1.8299   2.2317   2.3835   2.4497   2.5165   2.9032   3.3624   3.3896
     3.4418   3.5396   3.6891   3.8842   3.9120   4.0728   4.1614   4.2176
     4.6954   4.8827   5.7957   5.9428   6.1698   6.3522   6.6136   6.7336
     7.1492   7.2813

          k =-0.2541-0.3224-0.2971 ( 36442 PWs)   bands (ev):

   -44.1379 -44.1379 -22.2681 -22.2681 -22.1836 -22.1836 -22.0637 -22.0637
    -7.4890  -7.4890  -6.8577  -6.8577  -5.9962  -5.9962  -4.8193  -4.8193
    -4.3374  -4.3374   0.7092   0.7092   1.1948   1.1948   1.2342   1.2342
     2.2448   2.2448   2.4385   2.4385   2.6676   2.6676   3.2158   3.2158
     3.4211   3.4211   3.7934   3.7934   4.0301   4.0301   4.1984   4.1984
     5.1015   5.1015   5.6828   5.6828   6.1081   6.1081   6.6329   6.6329
     7.3747   7.3747

          k = 0.0000-0.2579 0.0000 ( 36445 PWs)   bands (ev):

   -44.1383 -44.1383 -22.2701 -22.2700 -22.1737 -22.1737 -22.0650 -22.0649
    -7.7515  -7.3063  -7.1221  -6.8442  -6.4246  -5.3929  -5.0165  -4.8748
    -4.7901  -3.8509   0.4416   0.7680   0.8953   1.1539   1.5430   1.6043
     2.3618   2.3871   2.7269   2.7596   2.9685   3.0448   3.3127   3.3378
     3.3809   3.6638   3.6950   3.9662   4.1401   4.1530   4.2003   4.6541
     4.9022   5.4335   5.7102   5.7790   5.8989   6.0949   6.3896   6.7584
     6.9632   7.2022

          k = 0.0000-0.2579 0.1485 ( 36452 PWs)   bands (ev):

   -44.1383 -44.1383 -22.2701 -22.2700 -22.1737 -22.1737 -22.0650 -22.0649
    -7.7144  -7.4423  -7.0087  -6.8584  -6.3311  -5.6874  -4.9005  -4.8087
    -4.6666  -3.9658   0.4924   0.9194   0.9484   1.0788   1.1258   1.9742
     2.1362   2.3912   2.6018   2.8586   2.9590   3.1359   3.2669   3.3235
     3.6274   3.6570   3.7711   3.9166   4.1355   4.1693   4.1879   4.6602
     4.8007   4.9978   5.8207   5.9928   6.0344   6.0661   6.5831   6.6655
     6.7910   7.1740

          k = 0.0000-0.2579-0.2971 ( 36454 PWs)   bands (ev):

   -44.1383 -44.1383 -22.2700 -22.2700 -22.1737 -22.1737 -22.0649 -22.0649
    -7.6064  -7.6064  -6.9067  -6.9067  -6.0627  -6.0627  -4.8516  -4.8516
    -4.2696  -4.2696   0.7001   0.7001   1.0111   1.0111   1.4107   1.4107
     2.4757   2.4757   2.6971   2.6971   2.9264   2.9264   3.3032   3.3032
     3.7722   3.7722   3.9568   3.9568   4.1097   4.1097   4.4026   4.4026
     4.6951   4.6951   5.9527   5.9527   6.2810   6.2810   6.4059   6.4059
     7.0445   7.0446

          k = 1.5243 0.0000 0.0000 ( 36439 PWs)   bands (ev):

   -44.1370 -44.1370 -22.2634 -22.2634 -22.2072 -22.2072 -22.0609 -22.0608
    -7.2914  -6.8846  -6.8791  -6.6818  -6.1621  -5.2552  -5.1006  -4.7235
    -4.6393  -4.4365   0.4992   0.5902   0.6667   1.2596   1.4873   1.5883
     1.6526   1.7109   2.0548   2.1253   2.2451   2.2614   2.3760   3.2135
     3.3801   3.4060   3.4622   3.6771   3.6933   3.7000   3.7783   4.1026
     4.4562   5.1511   5.4814   5.7998   6.1628   6.7053   6.8402   6.8811
     7.2440   7.5610

          k = 1.5243 0.0000 0.1485 ( 36476 PWs)   bands (ev):

   -44.1370 -44.1370 -22.2634 -22.2634 -22.2072 -22.2072 -22.0609 -22.0608
    -7.2587  -7.0265  -6.7808  -6.6930  -6.0589  -5.4973  -4.9298  -4.6827
    -4.6649  -4.4589   0.4792   0.7014   0.7593   1.0285   1.3945   1.4035
     1.6255   1.7173   2.0311   2.0626   2.3094   2.5982   2.8345   3.1738
     3.3486   3.4353   3.4483   3.6133   3.6316   3.7096   3.7124   4.1385
     4.1867   4.5481   6.0052   6.1706   6.2283   6.5994   6.8335   6.9219
     7.0841   7.4960

          k = 1.5243 0.0000-0.2971 ( 36508 PWs)   bands (ev):

   -44.1370 -44.1370 -22.2634 -22.2634 -22.2072 -22.2072 -22.0609 -22.0609
    -7.1649  -7.1649  -6.7248  -6.7248  -5.8072  -5.8072  -4.7854  -4.7854
    -4.5421  -4.5421   0.5865   0.5865   1.0521   1.0521   1.1070   1.1070
     1.6538   1.6538   2.0228   2.0228   2.8038   2.8038   3.1312   3.1312
     3.3397   3.3397   3.4232   3.4232   3.6814   3.6814   3.7929   3.7929
     4.1816   4.1816   6.2524   6.2524   6.6574   6.6574   6.7846   6.7846
     7.1525   7.1525

          k =-0.2541-0.4514 0.0000 ( 36444 PWs)   bands (ev):

   -44.1379 -44.1379 -22.2681 -22.2681 -22.1836 -22.1836 -22.0638 -22.0637
    -7.6212  -7.1950  -7.0416  -6.8095  -6.3820  -5.3499  -5.0337  -4.8337
    -4.7407  -3.9985   0.5306   0.9120   1.1833   1.3192   1.3464   1.5587
     1.9838   1.9850   2.1276   2.3587   2.4505   3.1990   3.3144   3.3803
     3.5386   3.6347   3.7638   3.8175   3.8343   4.0866   4.1301   4.1699
     4.3755   4.5705   5.9799   6.0368   6.3796   6.5644   6.7678   6.8388
     6.8415   6.9990

          k =-0.2541-0.4514 0.1485 ( 36461 PWs)   bands (ev):

   -44.1379 -44.1379 -22.2681 -22.2681 -22.1836 -22.1836 -22.0638 -22.0637
    -7.5852  -7.3239  -6.9470  -6.8232  -6.2776  -5.6329  -4.8982  -4.7651
    -4.6673  -4.0882   0.5664   0.9747   1.0086   1.2899   1.3409   1.5697
     1.8509   2.2307   2.3660   2.4078   2.4589   2.8969   3.2935   3.3155
     3.4202   3.5578   3.7322   3.8478   3.8643   3.9729   4.1568   4.1831
     4.7315   4.8465   5.7876   5.9668   6.1763   6.3265   6.6813   6.7417
     7.1282   7.2682

          k =-0.2541-0.4514-0.2971 ( 36490 PWs)   bands (ev):

   -44.1379 -44.1379 -22.2681 -22.2681 -22.1836 -22.1836 -22.0637 -22.0637
    -7.4809  -7.4809  -6.8655  -6.8655  -5.9999  -5.9999  -4.8246  -4.8246
    -4.3349  -4.3349   0.7134   0.7134   1.2385   1.2385   1.3162   1.3162
     2.2509   2.2509   2.3785   2.3785   2.6639   2.6639   3.2278   3.2278
     3.3189   3.3189   3.8091   3.8091   3.9853   3.9853   4.1646   4.1646
     5.1107   5.1107   5.6566   5.6566   6.0871   6.0871   6.6950   6.6950
     7.3581   7.3581

          k = 0.0000-0.3869 0.0000 ( 36477 PWs)   bands (ev):

   -44.1383 -44.1383 -22.2701 -22.2700 -22.1737 -22.1737 -22.0650 -22.0649
    -7.7402  -7.3045  -7.1115  -6.8545  -6.4478  -5.3945  -5.0285  -4.8762
    -4.7828  -3.8523   0.4650   0.7809   1.0494   1.2165   1.5669   1.6718
     2.3664   2.3912   2.7460   2.7569   2.9648   3.0776   3.0864   3.1010
     3.4848   3.6495   3.6677   3.9519   3.9580   4.0159   4.2003   4.6546
     4.8789   5.4031   5.7783   5.7971   5.9506   6.1381   6.4518   6.6644
     6.9637   7.1768

          k = 0.0000-0.3869 0.1485 ( 36452 PWs)   bands (ev):

   -44.1383 -44.1383 -22.2701 -22.2700 -22.1737 -22.1737 -22.0650 -22.0649
    -7.7033  -7.4345  -7.0091  -6.8690  -6.3477  -5.6896  -4.9182  -4.8051
    -4.6602  -3.9660   0.5089   0.9724   1.0163   1.1606   1.2134   1.9955
     2.1726   2.3961   2.6100   2.8640   2.9566   2.9880   3.0513   3.3233
     3.5809   3.6744   3.7467   3.9108   4.0268   4.0597   4.1294   4.6605
     4.7875   4.9932   5.8633   6.0046   6.0669   6.0808   6.5352   6.6922
     6.7931   7.1438

          k = 0.0000-0.3869-0.2971 ( 36454 PWs)   bands (ev):

   -44.1383 -44.1383 -22.2700 -22.2700 -22.1737 -22.1737 -22.0649 -22.0649
    -7.5962  -7.5962  -6.9156  -6.9156  -6.0694  -6.0694  -4.8580  -4.8580
    -4.2669  -4.2669   0.7111   0.7111   1.1482   1.1482   1.4317   1.4317
     2.4818   2.4818   2.6951   2.6951   2.9278   2.9278   3.1045   3.1045
     3.7986   3.7986   3.9399   3.9399   3.9918   3.9918   4.3854   4.3854
     4.6924   4.6924   5.9380   5.9380   6.3092   6.3092   6.4117   6.4117
     7.0181   7.0181

          k =-2.0325 0.0000 0.0000 ( 36452 PWs)   bands (ev):

   -44.1383 -44.1383 -22.2701 -22.2700 -22.1737 -22.1737 -22.0650 -22.0649
    -7.7354  -7.3038  -7.1074  -6.8582  -6.4579  -5.3952  -5.0337  -4.8757
    -4.7807  -3.8530   0.4702   0.7865   1.1658   1.2050   1.5764   1.7137
     2.3682   2.3934   2.7545   2.7557   2.9385   2.9630   2.9922   3.1099
     3.5984   3.6562   3.6623   3.8286   3.9462   3.9560   4.2002   4.6549
     4.8693   5.3943   5.8046   5.8075   5.9780   6.1513   6.4713   6.6140
     6.9638   7.1705

          k =-2.0325 0.0000 0.1485 ( 36456 PWs)   bands (ev):

   -44.1383 -44.1383 -22.2701 -22.2700 -22.1737 -22.1737 -22.0650 -22.0649
    -7.6986  -7.4312  -7.0096  -6.8731  -6.3548  -5.6904  -4.9249  -4.8040
    -4.6577  -3.9660   0.5114   0.9830   1.0438   1.2104   1.2729   2.0052
     2.1891   2.3982   2.6133   2.8666   2.8809   2.9353   2.9555   3.3618
     3.5608   3.7271   3.7364   3.9000   3.9523   4.0066   4.1268   4.6607
     4.7821   4.9927   5.8858   6.0095   6.0779   6.0800   6.5104   6.6986
     6.7940   7.1335

          k =-2.0325 0.0000-0.2971 ( 36460 PWs)   bands (ev):

   -44.1383 -44.1383 -22.2700 -22.2700 -22.1737 -22.1737 -22.0649 -22.0649
    -7.5918  -7.5918  -6.9194  -6.9194  -6.0722  -6.0722  -4.8607  -4.8607
    -4.2657  -4.2657   0.7119   0.7119   1.2217   1.2217   1.4408   1.4408
     2.4843   2.4843   2.6685   2.6685   2.9285   2.9285   3.0303   3.0303
     3.8276   3.8276   3.9329   3.9329   3.9354   3.9354   4.3789   4.3789
     4.6913   4.6913   5.9293   5.9293   6.3183   6.3183   6.4142   6.4142
     7.0057   7.0057

     the Fermi energy is     5.4579 ev

!    total energy              =   -4240.95181751 Ry

     total all-electron energy =   -150287.645512 Ry
     estimated scf accuracy    <          2.4E-11 Ry
     smearing contrib. (-TS)   =      -0.00000559 Ry
     internal energy E=F+TS    =   -4240.95181192 Ry

     The total energy is F=E-TS. E is the sum of the following terms:
     one-electron contribution =    -166.26836299 Ry
     hartree contribution      =     116.61347469 Ry
     xc contribution           =    -201.46857540 Ry
     ewald contribution        =    -222.31294729 Ry
     one-center paw contrib.   =   -3767.51540093 Ry

     convergence has been achieved in  16 iterations

     Forces acting on atoms (cartesian axes, Ry/au):

     atom    1 type  1   force =     0.00000000   -0.00676829    0.00000000
     atom    2 type  1   force =    -0.00000000    0.00676829    0.00000000
     atom    3 type  2   force =     0.00000000    0.00017799    0.00000000
     atom    4 type  2   force =     0.00000000   -0.00017799    0.00000000
     atom    5 type  2   force =     0.00000000    0.00146170    0.00049602
     atom    6 type  2   force =     0.00000000   -0.00146170   -0.00049602
     atom    7 type  2   force =     0.00000000    0.00146170   -0.00049602
     atom    8 type  2   force =    -0.00000000   -0.00146170    0.00049602
     atom    9 type  2   force =     0.00000000    0.00885932    0.00861000
     atom   10 type  2   force =     0.00000000   -0.00885932   -0.00861000
     atom   11 type  2   force =     0.00000000    0.00885932   -0.00861000
     atom   12 type  2   force =     0.00000000   -0.00885932    0.00861000

     Total force =     0.026678     Total SCF correction =     0.000006


     Computing stress (Cartesian axis) and pressure

          total   stress  (Ry/bohr**3)                   (kbar)     P=       -2.12
  -0.00001177   0.00000000   0.00000000           -1.73        0.00        0.00
   0.00000000  -0.00001246   0.00000000            0.00       -1.83        0.00
   0.00000000   0.00000000  -0.00001898            0.00        0.00       -2.79

 
     init_run     :     35.55s CPU     36.82s WALL (       1 calls)
     electrons    :   1756.54s CPU   1775.02s WALL (       1 calls)
     forces       :      7.46s CPU      7.72s WALL (       1 calls)
     stress       :     48.97s CPU     49.64s WALL (       1 calls)

     Called by init_run:
     wfcinit      :     30.55s CPU     30.85s WALL (       1 calls)
     potinit      :      1.47s CPU      1.52s WALL (       1 calls)
     hinit0       :      1.75s CPU      2.39s WALL (       1 calls)

     Called by electrons:
     c_bands      :   1451.65s CPU   1460.23s WALL (      17 calls)
     sum_band     :    273.81s CPU    279.75s WALL (      17 calls)
     v_of_rho     :      7.87s CPU      8.47s WALL (      17 calls)
     newd         :     16.66s CPU     20.22s WALL (      17 calls)
     PAW_pot      :      6.26s CPU      6.27s WALL (      17 calls)
     mix_rho      :      1.45s CPU      1.49s WALL (      17 calls)

     Called by c_bands:
     init_us_2    :     13.06s CPU     13.14s WALL (    2331 calls)
     cegterg      :   1379.93s CPU   1387.90s WALL (    1071 calls)

     Called by *egterg:
     cdiaghg      :     30.31s CPU     30.43s WALL (    8544 calls)
     h_psi        :   1186.62s CPU   1194.32s WALL (    8670 calls)
     s_psi        :     53.82s CPU     53.90s WALL (    8670 calls)
     g_psi        :      2.46s CPU      2.47s WALL (    7536 calls)

     Called by h_psi:
     h_psi:calbec :     45.72s CPU     45.83s WALL (    8670 calls)
     vloc_psi     :   1083.07s CPU   1090.49s WALL (    8670 calls)
     add_vuspsi   :     53.72s CPU     53.82s WALL (    8670 calls)

     General routines
     calbec       :     58.79s CPU     58.96s WALL (   10056 calls)
     fft          :      7.24s CPU      7.91s WALL (     245 calls)
     ffts         :      0.18s CPU      0.18s WALL (      34 calls)
     fftw         :   1055.51s CPU   1062.66s WALL (  434186 calls)
     interpolate  :      0.61s CPU      0.61s WALL (      17 calls)
 
     Parallel routines
     fft_scatt_xy :    288.42s CPU    290.34s WALL (  434465 calls)
     fft_scatt_yz :    178.48s CPU    180.27s WALL (  434465 calls)
 
     PWSCF        :  30m48.98s CPU  31m15.29s WALL

 
   This run was terminated on:  15:17:37  19Nov2021            

=------------------------------------------------------------------------------=
   JOB DONE.
=------------------------------------------------------------------------------=
