
     Program PWSCF v.6.7MaX starts on 19Nov2021 at 15:12:46 

     This program is part of the open-source Quantum ESPRESSO suite
     for quantum simulation of materials; please cite
         "P. Giannozzi et al., J. Phys.:Condens. Matter 21 395502 (2009);
         "P. Giannozzi et al., J. Phys.:Condens. Matter 29 465901 (2017);
          URL http://www.quantum-espresso.org", 
     in publications or presentations arising from this work. More details at
     http://www.quantum-espresso.org/quote

     Parallel version (MPI), running on    10 processors

     MPI processes distributed on     1 nodes
     R & G space division:  proc/nbgrp/npool/nimage =      10
     Waiting for input...
     Reading input from standard input

     Current dimensions of program PWSCF are:
     Max number of different atomic species (ntypx) = 10
     Max number of k-points (npk) =  40000
     Max angular momentum in pseudopotentials (lmaxx) =  3
     file Zr.pbe-spn-kjpaw_psl.1.0.0.UPF: wavefunction(s)  4S 4P renormalized
     file Te.pbe-n-kjpaw_psl.1.0.0.UPF: wavefunction(s)  5S 5P renormalized

     Subspace diagonalization in iterative solution of the eigenvalue problem:
     a serial algorithm will be used

     Message from routine setup:
     using ibrav=0 with symmetry is DISCOURAGED, use correct ibrav instead
 
     Parallelization info
     --------------------
     sticks:   dense  smooth     PW     G-vecs:    dense   smooth      PW
     Min         734     293     87               115340    29174    4753
     Max         735     295     88               115345    29176    4760
     Sum        7345    2937    873              1153415   291749   47557
 


     bravais-lattice index     =            0
     lattice parameter (alat)  =      15.5510  a.u.
     unit-cell volume          =    3018.5011 (a.u.)^3
     number of atoms/cell      =           12
     number of atomic types    =            2
     number of electrons       =        84.00
     number of Kohn-Sham states=           50
     kinetic-energy cutoff     =      80.0000  Ry
     charge density cutoff     =     800.0000  Ry
     scf convergence threshold =      1.0E-10
     mixing beta               =       0.7000
     number of iterations used =            8  plain     mixing
     Exchange-correlation= SLA  PW   PBX  PBC
                           (   1   4   3   4   0   0   0)

     celldm(1)=  15.551040  celldm(2)=   0.000000  celldm(3)=   0.000000
     celldm(4)=   0.000000  celldm(5)=   0.000000  celldm(6)=   0.000000

     crystal axes: (cart. coord. in units of alat)
               a(1) = (   0.246007  -0.969268   0.000000 )  
               a(2) = (   0.246007   0.969268   0.000000 )  
               a(3) = (   0.000000   0.000000   1.683031 )  

     reciprocal axes: (cart. coord. in units 2 pi/alat)
               b(1) = (  2.032465 -0.515853  0.000000 )  
               b(2) = (  2.032465  0.515853  0.000000 )  
               b(3) = (  0.000000  0.000000  0.594166 )  


     PseudoPot. # 1 for Zr read from file:
     pseudo/Zr.pbe-spn-kjpaw_psl.1.0.0.UPF
     MD5 check sum: 02112c41713a0468aff2bb39ef194e36
     Pseudo is Projector augmented-wave + core cor, Zval = 12.0
     Generated using &quot;atomic&quot; code by A. Dal Corso  v.6.2.2
     Shape of augmentation charge: PSQ
     Using radial grid of 1225 points,  6 beta functions with: 
                l(1) =   0
                l(2) =   0
                l(3) =   1
                l(4) =   1
                l(5) =   2
                l(6) =   2
     Q(r) pseudized with 0 coefficients 


     PseudoPot. # 2 for Te read from file:
     pseudo/Te.pbe-n-kjpaw_psl.1.0.0.UPF
     MD5 check sum: 66247bff2bd9dbf220fbb0bf5ab56e9d
     Pseudo is Projector augmented-wave + core cor, Zval =  6.0
     Generated using &quot;atomic&quot; code by A. Dal Corso  v.6.3
     Shape of augmentation charge: PSQ
     Using radial grid of 1245 points,  6 beta functions with: 
                l(1) =   0
                l(2) =   0
                l(3) =   1
                l(4) =   1
                l(5) =   2
                l(6) =   2
     Q(r) pseudized with 0 coefficients 


     atomic species   valence    mass     pseudopotential
        Zr            12.00    91.22000     Zr( 1.00)
        Te             6.00   127.60000     Te( 1.00)

      8 Sym. Ops., with inversion, found ( 4 have fractional translation)



   Cartesian axes

     site n.     atom                  positions (alat units)
         1           Zr  tau(   1) = (   0.0000000   0.6153577   0.4207578  )
         2           Zr  tau(   2) = (   0.2460067   0.3539104   1.2622733  )
         3           Te  tau(   3) = (   0.2460067   0.3344443   0.4207578  )
         4           Te  tau(   4) = (   0.0000000   0.6348238   1.2622733  )
         5           Te  tau(   5) = (   0.2460067   0.8053875   0.2490338  )
         6           Te  tau(   6) = (   0.0000000   0.1638806   1.4339973  )
         7           Te  tau(   7) = (   0.2460067   0.8053875   0.5924817  )
         8           Te  tau(   8) = (   0.0000000   0.1638806   1.0905493  )
         9           Te  tau(   9) = (   0.0000000   0.3978110   0.7145861  )
        10           Te  tau(  10) = (   0.2460067   0.5714571   0.9684450  )
        11           Te  tau(  11) = (   0.0000000   0.3978110   0.1269295  )
        12           Te  tau(  12) = (   0.2460067   0.5714571   1.5561016  )

     number of k points=    63  Methfessel-Paxton smearing, width (Ry)=  0.0030
                       cart. coord. in units 2pi/alat
        k(    1) = (   0.0000000   0.0000000   0.0000000), wk =   0.0078125
        k(    2) = (   0.0000000   0.0000000   0.1485415), wk =   0.0156250
        k(    3) = (   0.0000000   0.0000000  -0.2970830), wk =   0.0078125
        k(    4) = (   0.2540581   0.0644816   0.0000000), wk =   0.0312500
        k(    5) = (   0.2540581   0.0644816   0.1485415), wk =   0.0625000
        k(    6) = (   0.2540581   0.0644816  -0.2970830), wk =   0.0312500
        k(    7) = (   0.5081162   0.1289633   0.0000000), wk =   0.0312500
        k(    8) = (   0.5081162   0.1289633   0.1485415), wk =   0.0625000
        k(    9) = (   0.5081162   0.1289633  -0.2970830), wk =   0.0312500
        k(   10) = (   0.7621743   0.1934449   0.0000000), wk =   0.0312500
        k(   11) = (   0.7621743   0.1934449   0.1485415), wk =   0.0625000
        k(   12) = (   0.7621743   0.1934449  -0.2970830), wk =   0.0312500
        k(   13) = (  -1.0162324  -0.2579266   0.0000000), wk =   0.0156250
        k(   14) = (  -1.0162324  -0.2579266   0.1485415), wk =   0.0312500
        k(   15) = (  -1.0162324  -0.2579266  -0.2970830), wk =   0.0156250
        k(   16) = (   0.5081162   0.0000000   0.0000000), wk =   0.0156250
        k(   17) = (   0.5081162   0.0000000   0.1485415), wk =   0.0312500
        k(   18) = (   0.5081162   0.0000000  -0.2970830), wk =   0.0156250
        k(   19) = (   0.7621743   0.0644816   0.0000000), wk =   0.0312500
        k(   20) = (   0.7621743   0.0644816   0.1485415), wk =   0.0625000
        k(   21) = (   0.7621743   0.0644816  -0.2970830), wk =   0.0312500
        k(   22) = (   1.0162324   0.1289633   0.0000000), wk =   0.0312500
        k(   23) = (   1.0162324   0.1289633   0.1485415), wk =   0.0625000
        k(   24) = (   1.0162324   0.1289633  -0.2970830), wk =   0.0312500
        k(   25) = (  -0.7621743  -0.3224082   0.0000000), wk =   0.0312500
        k(   26) = (  -0.7621743  -0.3224082   0.1485415), wk =   0.0625000
        k(   27) = (  -0.7621743  -0.3224082  -0.2970830), wk =   0.0312500
        k(   28) = (  -0.5081162  -0.2579266   0.0000000), wk =   0.0312500
        k(   29) = (  -0.5081162  -0.2579266   0.1485415), wk =   0.0625000
        k(   30) = (  -0.5081162  -0.2579266  -0.2970830), wk =   0.0312500
        k(   31) = (  -0.2540581  -0.1934449   0.0000000), wk =   0.0312500
        k(   32) = (  -0.2540581  -0.1934449   0.1485415), wk =   0.0625000
        k(   33) = (  -0.2540581  -0.1934449  -0.2970830), wk =   0.0312500
        k(   34) = (   0.0000000  -0.1289633   0.0000000), wk =   0.0156250
        k(   35) = (   0.0000000  -0.1289633   0.1485415), wk =   0.0312500
        k(   36) = (   0.0000000  -0.1289633  -0.2970830), wk =   0.0156250
        k(   37) = (   1.0162324   0.0000000   0.0000000), wk =   0.0156250
        k(   38) = (   1.0162324   0.0000000   0.1485415), wk =   0.0312500
        k(   39) = (   1.0162324   0.0000000  -0.2970830), wk =   0.0156250
        k(   40) = (   1.2702905   0.0644816   0.0000000), wk =   0.0312500
        k(   41) = (   1.2702905   0.0644816   0.1485415), wk =   0.0625000
        k(   42) = (   1.2702905   0.0644816  -0.2970830), wk =   0.0312500
        k(   43) = (  -0.5081162  -0.3868899   0.0000000), wk =   0.0312500
        k(   44) = (  -0.5081162  -0.3868899   0.1485415), wk =   0.0625000
        k(   45) = (  -0.5081162  -0.3868899  -0.2970830), wk =   0.0312500
        k(   46) = (  -0.2540581  -0.3224082   0.0000000), wk =   0.0312500
        k(   47) = (  -0.2540581  -0.3224082   0.1485415), wk =   0.0625000
        k(   48) = (  -0.2540581  -0.3224082  -0.2970830), wk =   0.0312500
        k(   49) = (   0.0000000  -0.2579266   0.0000000), wk =   0.0156250
        k(   50) = (   0.0000000  -0.2579266   0.1485415), wk =   0.0312500
        k(   51) = (   0.0000000  -0.2579266  -0.2970830), wk =   0.0156250
        k(   52) = (   1.5243485   0.0000000   0.0000000), wk =   0.0156250
        k(   53) = (   1.5243485   0.0000000   0.1485415), wk =   0.0312500
        k(   54) = (   1.5243485   0.0000000  -0.2970830), wk =   0.0156250
        k(   55) = (  -0.2540581  -0.4513715   0.0000000), wk =   0.0312500
        k(   56) = (  -0.2540581  -0.4513715   0.1485415), wk =   0.0625000
        k(   57) = (  -0.2540581  -0.4513715  -0.2970830), wk =   0.0312500
        k(   58) = (   0.0000000  -0.3868899   0.0000000), wk =   0.0156250
        k(   59) = (   0.0000000  -0.3868899   0.1485415), wk =   0.0312500
        k(   60) = (   0.0000000  -0.3868899  -0.2970830), wk =   0.0156250
        k(   61) = (  -2.0324647   0.0000000   0.0000000), wk =   0.0078125
        k(   62) = (  -2.0324647   0.0000000   0.1485415), wk =   0.0156250
        k(   63) = (  -2.0324647   0.0000000  -0.2970830), wk =   0.0078125

     Dense  grid:  1153415 G-vectors     FFT dimensions: ( 144, 144, 240)

     Smooth grid:   291749 G-vectors     FFT dimensions: (  90,  90, 150)

     Estimated max dynamical RAM per process >     657.19 MB

     Estimated total dynamical RAM >       6.42 GB

     Initial potential from superposition of free atoms

     starting charge   83.99353, renormalised to   84.00000
     Starting wfcs are   66 randomized atomic wfcs
     Checking if some PAW data can be deallocated... 

     total cpu time spent up to now is       34.2 secs

     Self-consistent Calculation

     iteration #  1     ecut=    80.00 Ry     beta= 0.70
     Davidson diagonalization with overlap
     ethr =  1.00E-02,  avg # of iterations =  2.0

     Threshold (ethr) on eigenvalues was too large:
     Diagonalizing with lowered threshold

     Davidson diagonalization with overlap
     ethr =  3.59E-04,  avg # of iterations =  4.1

     total cpu time spent up to now is      195.7 secs

     total energy              =   -4240.70058025 Ry
     estimated scf accuracy    <       0.42170145 Ry

     iteration #  2     ecut=    80.00 Ry     beta= 0.70
     Davidson diagonalization with overlap
     ethr =  5.02E-04,  avg # of iterations =  7.2

     total cpu time spent up to now is      282.2 secs

     total energy              =   -4240.61424629 Ry
     estimated scf accuracy    <       2.14995661 Ry

     iteration #  3     ecut=    80.00 Ry     beta= 0.70
     Davidson diagonalization with overlap
     ethr =  5.02E-04,  avg # of iterations =  5.2

     total cpu time spent up to now is      352.2 secs

     total energy              =   -4240.89616046 Ry
     estimated scf accuracy    <       0.02253832 Ry

     iteration #  4     ecut=    80.00 Ry     beta= 0.70
     Davidson diagonalization with overlap
     c_bands:  1 eigenvalues not converged
     c_bands:  1 eigenvalues not converged
     c_bands:  1 eigenvalues not converged
     c_bands:  2 eigenvalues not converged
     c_bands:  1 eigenvalues not converged
     ethr =  2.68E-05,  avg # of iterations = 14.9

     total cpu time spent up to now is      469.0 secs

     total energy              =   -4240.91642905 Ry
     estimated scf accuracy    <       0.07908257 Ry

     iteration #  5     ecut=    80.00 Ry     beta= 0.70
     Davidson diagonalization with overlap
     ethr =  2.68E-05,  avg # of iterations =  4.3

     total cpu time spent up to now is      529.7 secs

     total energy              =   -4240.91769871 Ry
     estimated scf accuracy    <       0.01932299 Ry

     iteration #  6     ecut=    80.00 Ry     beta= 0.70
     Davidson diagonalization with overlap
     ethr =  2.30E-05,  avg # of iterations =  3.3

     total cpu time spent up to now is      584.3 secs

     total energy              =   -4240.91932783 Ry
     estimated scf accuracy    <       0.00188316 Ry

     iteration #  7     ecut=    80.00 Ry     beta= 0.70
     Davidson diagonalization with overlap
     c_bands:  1 eigenvalues not converged
     c_bands:  2 eigenvalues not converged
     c_bands:  1 eigenvalues not converged
     c_bands:  1 eigenvalues not converged
     c_bands:  1 eigenvalues not converged
     c_bands:  2 eigenvalues not converged
     c_bands:  1 eigenvalues not converged
     c_bands:  1 eigenvalues not converged
     c_bands:  2 eigenvalues not converged
     c_bands:  1 eigenvalues not converged
     c_bands:  1 eigenvalues not converged
     c_bands:  2 eigenvalues not converged
     c_bands:  1 eigenvalues not converged
     c_bands:  2 eigenvalues not converged
     ethr =  2.24E-06,  avg # of iterations = 14.9

     total cpu time spent up to now is      688.4 secs

     total energy              =   -4240.92060461 Ry
     estimated scf accuracy    <       0.00269518 Ry

     iteration #  8     ecut=    80.00 Ry     beta= 0.70
     Davidson diagonalization with overlap
     c_bands:  1 eigenvalues not converged
     c_bands:  1 eigenvalues not converged
     c_bands:  1 eigenvalues not converged
     ethr =  2.24E-06,  avg # of iterations =  3.7

     total cpu time spent up to now is      742.9 secs

     total energy              =   -4240.92061228 Ry
     estimated scf accuracy    <       0.00055923 Ry

     iteration #  9     ecut=    80.00 Ry     beta= 0.70
     Davidson diagonalization with overlap
     c_bands:  1 eigenvalues not converged
     c_bands:  1 eigenvalues not converged
     ethr =  6.66E-07,  avg # of iterations =  5.8

     total cpu time spent up to now is      804.5 secs

     total energy              =   -4240.92071654 Ry
     estimated scf accuracy    <       0.00000991 Ry

     iteration # 10     ecut=    80.00 Ry     beta= 0.70
     Davidson diagonalization with overlap
     c_bands:  1 eigenvalues not converged
     ethr =  1.18E-08,  avg # of iterations = 11.6

     total cpu time spent up to now is      909.2 secs

     total energy              =   -4240.92074663 Ry
     estimated scf accuracy    <       0.00003528 Ry

     iteration # 11     ecut=    80.00 Ry     beta= 0.70
     Davidson diagonalization with overlap
     ethr =  1.18E-08,  avg # of iterations =  2.9

     total cpu time spent up to now is      966.9 secs

     total energy              =   -4240.92074719 Ry
     estimated scf accuracy    <       0.00000498 Ry

     iteration # 12     ecut=    80.00 Ry     beta= 0.70
     Davidson diagonalization with overlap
     ethr =  5.93E-09,  avg # of iterations =  6.0

     total cpu time spent up to now is     1037.3 secs

     total energy              =   -4240.92074869 Ry
     estimated scf accuracy    <       0.00000139 Ry

     iteration # 13     ecut=    80.00 Ry     beta= 0.70
     Davidson diagonalization with overlap
     ethr =  1.65E-09,  avg # of iterations =  2.2

     total cpu time spent up to now is     1089.4 secs

     total energy              =   -4240.92074883 Ry
     estimated scf accuracy    <       0.00000007 Ry

     iteration # 14     ecut=    80.00 Ry     beta= 0.70
     Davidson diagonalization with overlap
     ethr =  8.84E-11,  avg # of iterations =  9.2

     total cpu time spent up to now is     1181.1 secs

     total energy              =   -4240.92074890 Ry
     estimated scf accuracy    <       0.00000021 Ry

     iteration # 15     ecut=    80.00 Ry     beta= 0.70
     Davidson diagonalization with overlap
     ethr =  8.84E-11,  avg # of iterations =  2.5

     total cpu time spent up to now is     1235.5 secs

     total energy              =   -4240.92074890 Ry
     estimated scf accuracy    <       0.00000004 Ry

     iteration # 16     ecut=    80.00 Ry     beta= 0.70
     Davidson diagonalization with overlap
     ethr =  4.62E-11,  avg # of iterations =  6.2

     total cpu time spent up to now is     1302.5 secs

     total energy              =   -4240.92074891 Ry
     estimated scf accuracy    <          4.2E-09 Ry

     iteration # 17     ecut=    80.00 Ry     beta= 0.70
     Davidson diagonalization with overlap
     ethr =  4.95E-12,  avg # of iterations =  5.3

     total cpu time spent up to now is     1365.8 secs

     total energy              =   -4240.92074891 Ry
     estimated scf accuracy    <          5.0E-09 Ry

     iteration # 18     ecut=    80.00 Ry     beta= 0.70
     Davidson diagonalization with overlap
     ethr =  4.95E-12,  avg # of iterations =  1.9

     total cpu time spent up to now is     1417.5 secs

     total energy              =   -4240.92074891 Ry
     estimated scf accuracy    <          1.8E-09 Ry

     iteration # 19     ecut=    80.00 Ry     beta= 0.70
     Davidson diagonalization with overlap
     ethr =  2.16E-12,  avg # of iterations =  3.8

     total cpu time spent up to now is     1473.8 secs

     total energy              =   -4240.92074891 Ry
     estimated scf accuracy    <          2.5E-10 Ry

     iteration # 20     ecut=    80.00 Ry     beta= 0.70
     Davidson diagonalization with overlap
     c_bands:  1 eigenvalues not converged
     ethr =  3.02E-13,  avg # of iterations =  8.3

     total cpu time spent up to now is     1557.7 secs

     total energy              =   -4240.92074891 Ry
     estimated scf accuracy    <          2.3E-10 Ry

     iteration # 21     ecut=    80.00 Ry     beta= 0.70
     Davidson diagonalization with overlap
     ethr =  2.72E-13,  avg # of iterations =  1.1

     total cpu time spent up to now is     1607.6 secs

     total energy              =   -4240.92074891 Ry
     estimated scf accuracy    <          1.0E-10 Ry

     iteration # 22     ecut=    80.00 Ry     beta= 0.70
     Davidson diagonalization with overlap
     ethr =  1.21E-13,  avg # of iterations =  1.7

     total cpu time spent up to now is     1659.4 secs

     End of self-consistent calculation

          k = 0.0000 0.0000 0.0000 ( 36359 PWs)   bands (ev):

   -44.1774 -44.1774 -22.3304 -22.3304 -22.2171 -22.2171 -22.0965 -22.0964
    -7.6226  -7.2346  -6.7662  -6.7106  -6.6966  -5.2135  -5.1776  -4.9553
    -4.8945  -3.8608   0.5002   0.6172   0.8333   1.0127   1.4521   1.6616
     2.3780   2.5105   2.6021   2.9857   2.9999   3.0815   3.3237   3.4463
     3.4700   3.4952   3.8787   4.0019   4.0353   4.2588   4.3039   4.6165
     5.4019   5.4843   5.4935   5.5448   5.9014   6.1207   6.5055   6.7169
     6.9294   7.3317

          k = 0.0000 0.0000 0.1485 ( 36415 PWs)   bands (ev):

   -44.1774 -44.1774 -22.3304 -22.3304 -22.2171 -22.2171 -22.0965 -22.0964
    -7.5856  -7.3288  -6.7762  -6.7707  -6.4630  -5.6571  -4.9842  -4.9090
    -4.6917  -3.9737   0.5255   0.6557   0.8930   1.0641   1.0955   2.1100
     2.1527   2.3961   2.4900   3.0168   3.0925   3.2207   3.2369   3.3272
     3.6278   3.6946   3.8111   3.9642   4.0177   4.2775   4.3147   4.6454
     5.0325   5.0791   5.6450   5.9250   6.0984   6.1430   6.5431   6.7529
     6.7782   7.3183

          k = 0.0000 0.0000-0.2971 ( 36410 PWs)   bands (ev):

   -44.1774 -44.1774 -22.3304 -22.3304 -22.2171 -22.2171 -22.0964 -22.0964
    -7.4796  -7.4796  -6.7795  -6.7795  -6.0936  -6.0936  -4.9443  -4.9443
    -4.2769  -4.2769   0.6735   0.6735   0.8107   0.8107   1.5379   1.5379
     2.4418   2.4418   2.7105   2.7105   3.1329   3.1329   3.2598   3.2598
     3.7993   3.7993   3.8344   3.8344   4.2995   4.2995   4.4460   4.4460
     4.7643   4.7643   5.9390   5.9390   6.2976   6.2976   6.4007   6.4007
     7.2158   7.2159

          k = 0.2541 0.0645 0.0000 ( 36396 PWs)   bands (ev):

   -44.1770 -44.1770 -22.3285 -22.3285 -22.2274 -22.2274 -22.0951 -22.0951
    -7.5085  -7.1378  -6.7219  -6.6582  -6.6008  -5.1865  -5.1562  -4.9160
    -4.8545  -3.9946   0.5885   0.7568   0.9723   1.1281   1.1938   1.5689
     1.9588   2.1542   2.2805   2.4933   2.5994   2.9104   3.5369   3.5718
     3.6084   3.6780   3.6820   3.8866   4.0405   4.1294   4.1648   4.2983
     4.4519   4.8079   5.5968   6.0278   6.3509   6.5397   6.5836   6.8027
     7.0164   7.1597

          k = 0.2541 0.0645 0.1485 ( 36423 PWs)   bands (ev):

   -44.1770 -44.1770 -22.3285 -22.3285 -22.2274 -22.2274 -22.0951 -22.0951
    -7.4725  -7.2250  -6.7277  -6.7212  -6.3781  -5.6011  -4.9596  -4.8711
    -4.6952  -4.0850   0.6022   0.7976   0.9616   1.0061   1.1469   1.6564
     1.8991   2.2228   2.5078   2.5963   2.6231   2.8861   3.2253   3.3198
     3.5654   3.6969   3.7815   3.8517   3.9592   4.0619   4.2142   4.2644
     4.7327   5.1482   5.7292   5.8264   6.2298   6.2947   6.5109   6.6400
     7.2438   7.2929

          k = 0.2541 0.0645-0.2971 ( 36436 PWs)   bands (ev):

   -44.1770 -44.1770 -22.3285 -22.3285 -22.2274 -22.2274 -22.0951 -22.0951
    -7.3694  -7.3694  -6.7326  -6.7326  -6.0185  -6.0185  -4.9118  -4.9118
    -4.3368  -4.3368   0.7153   0.7153   0.9042   0.9042   1.3680   1.3680
     2.2140   2.2140   2.6227   2.6227   2.8070   2.8070   3.0733   3.0733
     3.5451   3.5451   3.8197   3.8197   3.9628   3.9628   4.2578   4.2578
     5.2835   5.2835   5.7376   5.7376   6.0225   6.0225   6.5099   6.5099
     7.4074   7.4076

          k = 0.5081 0.1290 0.0000 ( 36499 PWs)   bands (ev):

   -44.1761 -44.1761 -22.3237 -22.3237 -22.2520 -22.2520 -22.0919 -22.0919
    -7.1911  -6.9035  -6.5944  -6.4826  -6.3285  -5.1535  -5.1432  -4.8119
    -4.7558  -4.4007   0.4369   0.7677   0.8816   1.1344   1.3759   1.4610
     1.6320   1.7272   1.9613   2.1735   2.1999   2.2715   2.7206   3.1046
     3.2604   3.3697   3.4063   3.5283   3.7692   3.8056   4.0369   4.1469
     4.8264   5.2746   5.4548   5.7789   5.8393   6.5010   6.5188   6.7753
     7.3167   7.5145

          k = 0.5081 0.1290 0.1485 ( 36476 PWs)   bands (ev):

   -44.1761 -44.1761 -22.3237 -22.3237 -22.2520 -22.2520 -22.0919 -22.0919
    -7.1592  -6.9589  -6.5969  -6.5600  -6.1351  -5.4701  -4.9486  -4.7851
    -4.7147  -4.4334   0.4743   0.7815   0.9874   1.1006   1.1751   1.4037
     1.4628   1.6830   2.0398   2.0588   2.3497   2.6131   2.9450   3.1565
     3.2439   3.3718   3.4508   3.5569   3.5934   3.8417   3.8535   4.2054
     4.4814   4.6610   5.9278   5.9965   6.2318   6.5207   6.5584   6.6825
     7.1749   7.4785

          k = 0.5081 0.1290-0.2971 ( 36466 PWs)   bands (ev):

   -44.1761 -44.1761 -22.3237 -22.3237 -22.2520 -22.2520 -22.0919 -22.0919
    -7.0708  -7.0708  -6.5947  -6.5947  -5.8172  -5.8172  -4.8551  -4.8551
    -4.5416  -4.5416   0.6211   0.6211   1.1094   1.1094   1.2631   1.2631
     1.3727   1.3727   2.0577   2.0577   2.8342   2.8342   3.0533   3.0533
     3.2671   3.2671   3.5209   3.5209   3.7306   3.7306   3.9116   3.9116
     4.3010   4.3010   6.1440   6.1440   6.5186   6.5186   6.7465   6.7465
     7.0937   7.0937

          k = 0.7622 0.1934 0.0000 ( 36521 PWs)   bands (ev):

   -44.1751 -44.1751 -22.3188 -22.3188 -22.2767 -22.2767 -22.0887 -22.0887
    -6.8128  -6.7090  -6.3285  -6.1199  -5.9321  -5.2720  -5.2359  -5.0285
    -4.6914  -4.6562  -0.0115   0.3801   0.6658   1.1685   1.1849   1.2127
     1.4766   1.5772   1.8931   1.9495   2.2334   2.5189   2.5840   2.6701
     2.7177   3.2425   3.2548   3.2891   3.6291   3.6564   3.7809   3.9502
     4.0742   4.5885   5.7353   6.0994   6.1710   6.5539   6.6451   6.7253
     7.1406   7.6209

          k = 0.7622 0.1934 0.1485 ( 36503 PWs)   bands (ev):

   -44.1751 -44.1751 -22.3188 -22.3188 -22.2767 -22.2767 -22.0887 -22.0887
    -6.7967  -6.7224  -6.3214  -6.2070  -5.7952  -5.3879  -5.1726  -5.0515
    -4.6788  -4.6554   0.0769   0.4702   0.5677   0.9647   1.1651   1.2137
     1.4923   1.5867   1.7639   2.0891   2.1318   2.6148   2.6591   2.8147
     2.8600   3.1988   3.2764   3.3486   3.4278   3.6778   3.7188   3.8488
     4.0430   4.9399   5.2192   6.1610   6.4667   6.4925   6.6304   6.8624
     6.9222   7.3863

          k = 0.7622 0.1934-0.2971 ( 36522 PWs)   bands (ev):

   -44.1751 -44.1751 -22.3188 -22.3188 -22.2767 -22.2767 -22.0887 -22.0887
    -6.7582  -6.7582  -6.2882  -6.2882  -5.5813  -5.5813  -5.1070  -5.1070
    -4.6608  -4.6608   0.3017   0.3017   0.7556   0.7556   1.0518   1.0518
     1.5673   1.5673   1.9385   1.9385   2.3884   2.3884   2.8047   2.8047
     2.9859   2.9859   3.4540   3.4540   3.5488   3.5488   3.7509   3.7509
     4.2714   4.2714   5.9108   5.9108   6.3186   6.3186   6.7096   6.7096
     7.2348   7.2348

          k =-1.0162-0.2579 0.0000 ( 36506 PWs)   bands (ev):

   -44.1747 -44.1747 -22.3166 -22.3166 -22.2871 -22.2871 -22.0873 -22.0873
    -6.6717  -6.6513  -5.8008  -5.7970  -5.5907  -5.5835  -5.5278  -5.5098
    -4.6316  -4.6196   0.1180   0.1472   0.4755   0.4910   1.0093   1.0145
     1.4721   1.6760   2.2021   2.2866   2.2910   2.2952   2.8203   2.8570
     2.8691   3.0241   3.2548   3.2560   3.3374   3.4533   3.6002   3.7235
     3.8399   3.9282   6.2641   6.3028   6.3695   6.4566   6.8864   6.9152
     6.9361   6.9373

          k =-1.0162-0.2579 0.1485 ( 36506 PWs)   bands (ev):

   -44.1747 -44.1747 -22.3166 -22.3166 -22.2871 -22.2871 -22.0873 -22.0873
    -6.6682  -6.6537  -5.7950  -5.7922  -5.6447  -5.6376  -5.4684  -5.4577
    -4.6385  -4.6301   0.0446   0.0551   0.6656   0.6666   1.0464   1.0748
     1.4544   1.5457   1.9302   1.9668   2.3299   2.3383   2.7791   2.8063
     2.9372   2.9755   3.2279   3.2659   3.4784   3.5568   3.6812   3.7480
     4.1651   4.1959   5.8046   5.8065   6.3117   6.3788   6.7392   6.7817
     7.1629   7.1775

          k =-1.0162-0.2579-0.2971 ( 36528 PWs)   bands (ev):

   -44.1747 -44.1747 -22.3166 -22.3166 -22.2871 -22.2871 -22.0873 -22.0873
    -6.6604  -6.6604  -5.7865  -5.7865  -5.6755  -5.6755  -5.4286  -5.4286
    -4.6433  -4.6433  -0.0030  -0.0030   0.8538   0.8538   1.1632   1.1632
     1.3811   1.3811   1.6812   1.6812   2.3352   2.3352   2.8059   2.8059
     2.9235   2.9235   3.2799   3.2799   3.5300   3.5300   3.7567   3.7567
     4.8161   4.8161   5.0915   5.0915   6.2874   6.2874   6.7627   6.7627
     7.2141   7.2141

          k = 0.5081 0.0000 0.0000 ( 36503 PWs)   bands (ev):

   -44.1761 -44.1761 -22.3237 -22.3237 -22.2520 -22.2520 -22.0919 -22.0919
    -7.1979  -6.9077  -6.5854  -6.4767  -6.3302  -5.1493  -5.1443  -4.8091
    -4.7597  -4.4003   0.4339   0.7668   0.8888   1.0990   1.3721   1.4412
     1.6402   1.7284   1.9716   2.1380   2.2020   2.2441   2.7310   3.0846
     3.2603   3.3701   3.4604   3.5640   3.7770   3.7906   4.0668   4.1855
     4.8289   5.2808   5.4696   5.8007   5.8211   6.4618   6.4675   6.8104
     7.3498   7.5217

          k = 0.5081 0.0000 0.1485 ( 36453 PWs)   bands (ev):

   -44.1761 -44.1761 -22.3237 -22.3237 -22.2520 -22.2520 -22.0919 -22.0919
    -7.1660  -6.9645  -6.5875  -6.5533  -6.1366  -5.4712  -4.9413  -4.7863
    -4.7167  -4.4341   0.4709   0.7765   0.9944   1.1026   1.1429   1.3864
     1.4606   1.6834   2.0422   2.0494   2.3404   2.5894   2.9350   3.1449
     3.2364   3.4020   3.4877   3.5820   3.5888   3.8549   3.8722   4.2397
     4.4977   4.6663   5.9344   6.0106   6.2330   6.4693   6.5249   6.7114
     7.2027   7.4802

          k = 0.5081 0.0000-0.2971 ( 36452 PWs)   bands (ev):

   -44.1761 -44.1761 -22.3237 -22.3237 -22.2520 -22.2520 -22.0919 -22.0919
    -7.0774  -7.0774  -6.5861  -6.5861  -5.8189  -5.8189  -4.8507  -4.8507
    -4.5441  -4.5441   0.6159   0.6159   1.1108   1.1108   1.2511   1.2511
     1.3620   1.3620   2.0559   2.0559   2.8241   2.8241   3.0256   3.0256
     3.2603   3.2603   3.5877   3.5877   3.7333   3.7333   3.9148   3.9148
     4.3281   4.3281   6.1586   6.1586   6.4863   6.4863   6.7588   6.7588
     7.0959   7.0959

          k = 0.7622 0.0645 0.0000 ( 36505 PWs)   bands (ev):

   -44.1751 -44.1751 -22.3188 -22.3188 -22.2767 -22.2767 -22.0887 -22.0887
    -6.8227  -6.7080  -6.3186  -6.1185  -5.9359  -5.2722  -5.2293  -5.0284
    -4.6878  -4.6614  -0.0188   0.3922   0.6936   1.1601   1.2146   1.2341
     1.4292   1.5338   1.8655   1.9556   2.1703   2.5095   2.5745   2.6567
     2.6751   3.2873   3.2880   3.3133   3.5774   3.6764   3.8428   3.9811
     4.0908   4.6346   5.7344   6.1053   6.1384   6.5156   6.6806   6.7025
     7.1698   7.6205

          k = 0.7622 0.0645 0.1485 ( 36509 PWs)   bands (ev):

   -44.1751 -44.1751 -22.3188 -22.3188 -22.2767 -22.2767 -22.0887 -22.0887
    -6.8055  -6.7235  -6.3119  -6.2036  -5.7986  -5.3885  -5.1671  -5.0504
    -4.6764  -4.6591   0.0720   0.4790   0.5771   0.9916   1.1874   1.2031
     1.4495   1.5977   1.7597   2.0252   2.0602   2.6079   2.6532   2.7835
     2.8601   3.1962   3.3467   3.3700   3.3946   3.6998   3.7568   3.8664
     4.0940   4.9389   5.2478   6.1499   6.4581   6.4708   6.6477   6.8659
     6.9114   7.4039

          k = 0.7622 0.0645-0.2971 ( 36472 PWs)   bands (ev):

   -44.1751 -44.1751 -22.3188 -22.3188 -22.2767 -22.2767 -22.0887 -22.0887
    -6.7638  -6.7638  -6.2809  -6.2809  -5.5838  -5.5838  -5.1035  -5.1035
    -4.6614  -4.6614   0.3026   0.3026   0.7534   0.7534   1.0790   1.0790
     1.5655   1.5655   1.8773   1.8773   2.3573   2.3573   2.7881   2.7881
     2.9884   2.9884   3.5167   3.5167   3.5574   3.5574   3.7482   3.7482
     4.2958   4.2958   5.9338   5.9338   6.3192   6.3192   6.6746   6.6746
     7.2604   7.2604

          k = 1.0162 0.1290 0.0000 ( 36514 PWs)   bands (ev):

   -44.1747 -44.1747 -22.3166 -22.3166 -22.2871 -22.2871 -22.0873 -22.0873
    -6.6717  -6.6513  -5.8003  -5.7974  -5.5913  -5.5829  -5.5278  -5.5098
    -4.6316  -4.6196   0.1125   0.1528   0.4688   0.4979   1.0043   1.0218
     1.4768   1.6675   2.2071   2.2674   2.2886   2.2983   2.8254   2.8610
     2.8947   3.0167   3.2158   3.2885   3.3435   3.4532   3.5864   3.7259
     3.8507   3.9158   6.2673   6.3016   6.3649   6.4615   6.8915   6.9186
     6.9352   6.9397

          k = 1.0162 0.1290 0.1485 ( 36524 PWs)   bands (ev):

   -44.1747 -44.1747 -22.3166 -22.3166 -22.2871 -22.2871 -22.0873 -22.0873
    -6.6682  -6.6537  -5.7946  -5.7925  -5.6451  -5.6372  -5.4685  -5.4576
    -4.6385  -4.6301   0.0427   0.0565   0.6620   0.6709   1.0510   1.0718
     1.4578   1.5453   1.9197   1.9703   2.3214   2.3339   2.7445   2.8512
     2.9611   2.9814   3.2044   3.2666   3.4810   3.5834   3.6731   3.7186
     4.1724   4.1936   5.7911   5.8218   6.3093   6.3812   6.7456   6.7818
     7.1650   7.1753

          k = 1.0162 0.1290-0.2971 ( 36516 PWs)   bands (ev):

   -44.1747 -44.1747 -22.3166 -22.3166 -22.2871 -22.2871 -22.0873 -22.0873
    -6.6604  -6.6604  -5.7865  -5.7865  -5.6755  -5.6755  -5.4286  -5.4286
    -4.6433  -4.6433  -0.0031  -0.0031   0.8531   0.8531   1.1677   1.1677
     1.3786   1.3786   1.6814   1.6814   2.3247   2.3247   2.7889   2.7889
     2.9674   2.9674   3.2630   3.2630   3.5377   3.5377   3.7467   3.7467
     4.8161   4.8161   5.0932   5.0932   6.2872   6.2872   6.7656   6.7656
     7.2137   7.2137

          k =-0.7622-0.3224 0.0000 ( 36511 PWs)   bands (ev):

   -44.1751 -44.1751 -22.3188 -22.3188 -22.2767 -22.2767 -22.0887 -22.0887
    -6.7969  -6.7122  -6.3426  -6.1222  -5.9268  -5.2717  -5.2452  -5.0287
    -4.6946  -4.6508  -0.0010   0.3634   0.6293   1.1614   1.1798   1.1925
     1.4966   1.6509   1.9418   1.9430   2.3266   2.5359   2.6007   2.6970
     2.7604   3.1450   3.2122   3.3250   3.6117   3.6471   3.7268   3.9032
     4.0504   4.5162   5.7372   6.1063   6.2075   6.5638   6.6120   6.7930
     7.0950   7.6218

          k =-0.7622-0.3224 0.1485 ( 36492 PWs)   bands (ev):

   -44.1751 -44.1751 -22.3188 -22.3188 -22.2767 -22.2767 -22.0887 -22.0887
    -6.7826  -6.7218  -6.3350  -6.2120  -5.7903  -5.3870  -5.1802  -5.0530
    -4.6808  -4.6515   0.0835   0.4596   0.5523   0.9368   1.1429   1.2221
     1.5486   1.5795   1.7544   2.1835   2.2434   2.6243   2.6736   2.8415
     2.8657   3.1725   3.2259   3.3281   3.4649   3.6202   3.6819   3.8154
     3.9601   4.9403   5.1807   6.1799   6.4557   6.5170   6.6305   6.8744
     6.9328   7.3568

          k =-0.7622-0.3224-0.2971 ( 36508 PWs)   bands (ev):

   -44.1751 -44.1751 -22.3188 -22.3188 -22.2767 -22.2767 -22.0887 -22.0887
    -6.7499  -6.7499  -6.2988  -6.2988  -5.5776  -5.5776  -5.1119  -5.1119
    -4.6600  -4.6600   0.2999   0.2999   0.7587   0.7587   1.0214   1.0214
     1.5678   1.5678   2.0150   2.0150   2.4439   2.4439   2.8329   2.8329
     2.9814   2.9814   3.3626   3.3626   3.5497   3.5497   3.7327   3.7327
     4.2370   4.2370   5.8798   5.8798   6.3159   6.3159   6.7702   6.7702
     7.1913   7.1913

          k =-0.5081-0.2579 0.0000 ( 36480 PWs)   bands (ev):

   -44.1761 -44.1761 -22.3238 -22.3237 -22.2520 -22.2520 -22.0919 -22.0919
    -7.1735  -6.8937  -6.6152  -6.4983  -6.3242  -5.1639  -5.1407  -4.8162
    -4.7488  -4.4016   0.4450   0.7638   0.8651   1.2343   1.3838   1.5147
     1.6200   1.7205   1.9461   2.2148   2.2353   2.3170   2.6989   3.1595
     3.2639   3.2820   3.3764   3.4190   3.7401   3.8156   3.9945   4.0676
     4.8185   5.2624   5.4053   5.7364   5.8858   6.5968   6.6384   6.6910
     7.2371   7.5012

          k =-0.5081-0.2579 0.1485 ( 36485 PWs)   bands (ev):

   -44.1761 -44.1761 -22.3237 -22.3237 -22.2520 -22.2520 -22.0919 -22.0919
    -7.1417  -6.9450  -6.6189  -6.5785  -6.1314  -5.4675  -4.9651  -4.7838
    -4.7094  -4.4317   0.4830   0.7883   0.9724   1.0958   1.2648   1.4287
     1.4924   1.6761   2.0451   2.0747   2.3681   2.6695   2.9655   3.1883
     3.2557   3.2656   3.4213   3.4508   3.6060   3.8038   3.8363   4.1313
     4.4340   4.6492   5.8981   5.9766   6.2296   6.6122   6.6378   6.6495
     7.1068   7.4781

          k =-0.5081-0.2579-0.2971 ( 36478 PWs)   bands (ev):

   -44.1761 -44.1761 -22.3237 -22.3237 -22.2520 -22.2520 -22.0919 -22.0919
    -7.0539  -7.0539  -6.6167  -6.6167  -5.8130  -5.8130  -4.8655  -4.8655
    -4.5359  -4.5359   0.6329   0.6329   1.1043   1.1043   1.2796   1.2796
     1.4194   1.4194   2.0622   2.0622   2.8590   2.8590   3.1271   3.1271
     3.2821   3.2821   3.3660   3.3660   3.7127   3.7127   3.9042   3.9042
     4.2327   4.2327   6.1060   6.1060   6.5872   6.5872   6.7269   6.7269
     7.0910   7.0910

          k =-0.2541-0.1934 0.0000 ( 36410 PWs)   bands (ev):

   -44.1770 -44.1770 -22.3285 -22.3285 -22.2274 -22.2274 -22.0951 -22.0951
    -7.4959  -7.1243  -6.7409  -6.6759  -6.5978  -5.1942  -5.1539  -4.9223
    -4.8470  -3.9957   0.6237   0.8341   0.9826   1.1486   1.2247   1.5710
     1.9770   2.1619   2.2978   2.4547   2.5717   2.9832   3.3947   3.4594
     3.5402   3.6868   3.7283   3.9015   4.0424   4.0783   4.1377   4.2672
     4.3940   4.7720   5.6409   6.0380   6.3755   6.5376   6.6020   6.8303
     7.0160   7.0892

          k =-0.2541-0.1934 0.1485 ( 36427 PWs)   bands (ev):

   -44.1770 -44.1770 -22.3285 -22.3285 -22.2274 -22.2274 -22.0951 -22.0951
    -7.4598  -7.2115  -6.7500  -6.7339  -6.3770  -5.5988  -4.9766  -4.8680
    -4.6889  -4.0846   0.6304   0.8631   0.9938   1.0502   1.1519   1.6732
     1.8979   2.2272   2.4754   2.5684   2.6513   2.9127   3.2184   3.3214
     3.4320   3.5936   3.7892   3.8662   3.9513   4.0485   4.1497   4.2186
     4.7070   5.1228   5.7384   5.8134   6.1943   6.3138   6.5979   6.6690
     7.2394   7.2465

          k =-0.2541-0.1934-0.2971 ( 36422 PWs)   bands (ev):

   -44.1770 -44.1770 -22.3285 -22.3285 -22.2274 -22.2274 -22.0951 -22.0951
    -7.3564  -7.3564  -6.7508  -6.7508  -6.0157  -6.0157  -4.9188  -4.9188
    -4.3335  -4.3335   0.7353   0.7353   0.9704   0.9704   1.3776   1.3776
     2.2122   2.2122   2.5836   2.5836   2.8288   2.8288   3.1015   3.1015
     3.4379   3.4379   3.8038   3.8038   3.9581   3.9581   4.2011   4.2011
     5.2631   5.2631   5.7061   5.7061   6.0065   6.0065   6.5979   6.5979
     7.3925   7.3926

          k = 0.0000-0.1290 0.0000 ( 36417 PWs)   bands (ev):

   -44.1774 -44.1774 -22.3304 -22.3304 -22.2171 -22.2171 -22.0965 -22.0964
    -7.6160  -7.2268  -6.7772  -6.7203  -6.6951  -5.2174  -5.1764  -4.9600
    -4.8895  -3.8614   0.5305   0.6603   0.8397   1.0129   1.4750   1.6714
     2.3823   2.5174   2.5977   2.9916   3.0421   3.0748   3.3208   3.3691
     3.4265   3.4597   3.8367   4.0018   4.0283   4.2049   4.2562   4.6190
     5.3960   5.4913   5.4940   5.5193   5.9114   6.1583   6.5558   6.6822
     6.9308   7.4481

          k = 0.0000-0.1290 0.1485 ( 36419 PWs)   bands (ev):

   -44.1774 -44.1774 -22.3304 -22.3304 -22.2171 -22.2171 -22.0965 -22.0964
    -7.5789  -7.3215  -6.7892  -6.7766  -6.4629  -5.6558  -4.9942  -4.9066
    -4.6883  -3.9736   0.5511   0.6984   0.9069   1.0734   1.1027   2.1188
     2.1673   2.4007   2.4964   3.0427   3.0858   3.1873   3.2149   3.2698
     3.6210   3.6962   3.7637   3.9629   3.9793   4.2315   4.2716   4.6480
     5.0332   5.0628   5.6496   5.9260   6.1052   6.1412   6.5347   6.7793
     6.8012   7.4256

          k = 0.0000-0.1290-0.2971 ( 36464 PWs)   bands (ev):

   -44.1774 -44.1774 -22.3304 -22.3304 -22.2171 -22.2171 -22.0964 -22.0964
    -7.4727  -7.4727  -6.7893  -6.7893  -6.0923  -6.0923  -4.9481  -4.9481
    -4.2752  -4.2752   0.7129   0.7129   0.8167   0.8167   1.5483   1.5483
     2.4472   2.4472   2.7212   2.7212   3.1264   3.1264   3.2098   3.2098
     3.7843   3.7843   3.8304   3.8304   4.2219   4.2219   4.4550   4.4550
     4.7664   4.7664   5.9179   5.9179   6.3172   6.3172   6.4016   6.4016
     7.2279   7.2279

          k = 1.0162 0.0000 0.0000 ( 36499 PWs)   bands (ev):

   -44.1747 -44.1747 -22.3166 -22.3166 -22.2871 -22.2871 -22.0873 -22.0873
    -6.6717  -6.6513  -5.7997  -5.7980  -5.5918  -5.5823  -5.5278  -5.5098
    -4.6316  -4.6196   0.1082   0.1572   0.4643   0.5026   1.0021   1.0262
     1.4822   1.6582   2.2167   2.2448   2.2874   2.3002   2.8357   2.8476
     2.9394   3.0030   3.1980   3.2972   3.3527   3.4481   3.5758   3.7304
     3.8603   3.9019   6.2710   6.3000   6.3606   6.4661   6.8972   6.9220
     6.9339   6.9422

          k = 1.0162 0.0000 0.1485 ( 36485 PWs)   bands (ev):

   -44.1747 -44.1747 -22.3166 -22.3166 -22.2871 -22.2871 -22.0873 -22.0873
    -6.6682  -6.6537  -5.7941  -5.7931  -5.6455  -5.6369  -5.4686  -5.4575
    -4.6385  -4.6301   0.0411   0.0577   0.6605   0.6730   1.0587   1.0658
     1.4615   1.5449   1.9103   1.9726   2.3143   2.3288   2.7308   2.8667
     2.9765   3.0135   3.1716   3.2665   3.4840   3.6387   3.6604   3.6650
     4.1834   4.1873   5.7857   5.8290   6.3071   6.3834   6.7526   6.7813
     7.1695   7.1707

          k = 1.0162 0.0000-0.2971 ( 36514 PWs)   bands (ev):

   -44.1747 -44.1747 -22.3166 -22.3166 -22.2871 -22.2871 -22.0873 -22.0873
    -6.6604  -6.6604  -5.7865  -5.7865  -5.6755  -5.6755  -5.4286  -5.4286
    -4.6433  -4.6433  -0.0033  -0.0033   0.8525   0.8525   1.1723   1.1723
     1.3760   1.3760   1.6816   1.6816   2.3147   2.3147   2.7776   2.7776
     3.0092   3.0092   3.2422   3.2422   3.5458   3.5458   3.7360   3.7360
     4.8161   4.8161   5.0950   5.0950   6.2871   6.2871   6.7685   6.7685
     7.2133   7.2133

          k = 1.2703 0.0645 0.0000 ( 36468 PWs)   bands (ev):

   -44.1751 -44.1751 -22.3188 -22.3188 -22.2767 -22.2767 -22.0887 -22.0887
    -6.7834  -6.7165  -6.3527  -6.1240  -5.9229  -5.2715  -5.2519  -5.0288
    -4.6961  -4.6478   0.0067   0.3520   0.6048   1.1590   1.1738   1.1874
     1.4976   1.7055   1.9399   1.9790   2.3868   2.5689   2.6137   2.7183
     2.7815   3.0492   3.2079   3.4094   3.5304   3.5638   3.7709   3.8675
     4.0341   4.4579   5.7390   6.1182   6.2301   6.5069   6.6570   6.8467
     7.0566   7.5458

          k = 1.2703 0.0645 0.1485 ( 36490 PWs)   bands (ev):

   -44.1751 -44.1751 -22.3188 -22.3188 -22.2767 -22.2767 -22.0887 -22.0887
    -6.7708  -6.7229  -6.3447  -6.2157  -5.7868  -5.3864  -5.1856  -5.0541
    -4.6817  -4.6493   0.0880   0.4534   0.5398   0.9219   1.1304   1.2267
     1.5578   1.6211   1.7268   2.2603   2.3205   2.6313   2.6997   2.8512
     2.8710   3.0787   3.2785   3.3317   3.4363   3.5832   3.6960   3.7671
     3.8885   4.9399   5.1549   6.1970   6.4242   6.5371   6.6467   6.8930
     6.9393   7.3327

          k = 1.2703 0.0645-0.2971 ( 36480 PWs)   bands (ev):

   -44.1751 -44.1751 -22.3188 -22.3188 -22.2767 -22.2767 -22.0887 -22.0887
    -6.7437  -6.7437  -6.3065  -6.3065  -5.5750  -5.5750  -5.1154  -5.1154
    -4.6595  -4.6595   0.2982   0.2982   0.7608   0.7608   1.0042   1.0042
     1.5683   1.5683   2.0601   2.0601   2.4911   2.4911   2.8810   2.8810
     2.9615   2.9615   3.2840   3.2840   3.5676   3.5676   3.7018   3.7018
     4.2130   4.2130   5.8588   5.8588   6.3132   6.3132   6.8243   6.8243
     7.1518   7.1518

          k =-0.5081-0.3869 0.0000 ( 36463 PWs)   bands (ev):

   -44.1761 -44.1761 -22.3238 -22.3237 -22.2520 -22.2520 -22.0919 -22.0919
    -7.1540  -6.8851  -6.6342  -6.5166  -6.3199  -5.1744  -5.1382  -4.8182
    -4.7440  -4.4026   0.4549   0.7520   0.8498   1.3727   1.3901   1.5617
     1.6059   1.7280   1.9244   2.2423   2.2675   2.3484   2.6925   3.1520
     3.2228   3.2762   3.2886   3.4125   3.7069   3.7300   3.9776   4.0477
     4.8089   5.2530   5.3342   5.7088   5.9375   6.6061   6.7050   6.7507
     7.1485   7.4934

          k =-0.5081-0.3869 0.1485 ( 36477 PWs)   bands (ev):

   -44.1761 -44.1761 -22.3238 -22.3237 -22.2520 -22.2520 -22.0919 -22.0919
    -7.1223  -6.9305  -6.6393  -6.6010  -6.1276  -5.4649  -4.9802  -4.7840
    -4.7040  -4.4301   0.4927   0.7879   0.9593   1.0907   1.3895   1.4318
     1.5443   1.6562   2.0567   2.0935   2.3764   2.7215   2.9763   3.1285
     3.2346   3.2733   3.3226   3.4501   3.6085   3.7375   3.8215   4.0927
     4.3682   4.6389   5.8511   5.9753   6.2280   6.5494   6.7396   6.7612
     7.0270   7.4893

          k =-0.5081-0.3869-0.2971 ( 36492 PWs)   bands (ev):

   -44.1761 -44.1761 -22.3237 -22.3237 -22.2520 -22.2520 -22.0919 -22.0919
    -7.0352  -7.0352  -6.6404  -6.6404  -5.8087  -5.8087  -4.8757  -4.8757
    -4.5305  -4.5305   0.6440   0.6440   1.0975   1.0975   1.2829   1.2829
     1.4940   1.4940   2.0656   2.0656   2.8806   2.8806   3.1979   3.1979
     3.2182   3.2182   3.3161   3.3161   3.6697   3.6697   3.8994   3.8994
     4.1605   4.1605   6.0674   6.0674   6.6139   6.6139   6.7465   6.7465
     7.0940   7.0940

          k =-0.2541-0.3224 0.0000 ( 36485 PWs)   bands (ev):

   -44.1770 -44.1770 -22.3285 -22.3285 -22.2274 -22.2274 -22.0951 -22.0951
    -7.4769  -7.1040  -6.7647  -6.7061  -6.5936  -5.2055  -5.1507  -4.9269
    -4.8403  -3.9971   0.6516   0.9659   0.9979   1.1973   1.2979   1.5711
     2.0069   2.1670   2.3277   2.3660   2.5048   3.1077   3.2171   3.2726
     3.4863   3.7113   3.7492   3.9026   4.0072   4.0546   4.0703   4.2286
     4.3818   4.7008   5.7121   6.0477   6.3930   6.4700   6.6827   6.8703
     6.9864   7.0215

          k =-0.2541-0.3224 0.1485 ( 36445 PWs)   bands (ev):

   -44.1770 -44.1770 -22.3285 -22.3285 -22.2274 -22.2274 -22.0951 -22.0951
    -7.4406  -7.1908  -6.7775  -6.7589  -6.3751  -5.5955  -4.9975  -4.8664
    -4.6805  -4.0842   0.6494   0.9285   1.0932   1.1242   1.1898   1.6973
     1.9009   2.2240   2.3891   2.5160   2.6847   2.9424   3.1951   3.2581
     3.3108   3.4901   3.8249   3.8703   3.9481   4.0154   4.0746   4.1455
     4.6934   5.0809   5.7548   5.8004   6.1743   6.2790   6.7012   6.7242
     7.1862   7.2341

          k =-0.2541-0.3224-0.2971 ( 36442 PWs)   bands (ev):

   -44.1770 -44.1770 -22.3285 -22.3285 -22.2274 -22.2274 -22.0951 -22.0951
    -7.3366  -7.3366  -6.7778  -6.7778  -6.0118  -6.0118  -4.9288  -4.9288
    -4.3289  -4.3289   0.7435   0.7435   1.1081   1.1081   1.3925   1.3925
     2.2040   2.2040   2.5042   2.5042   2.8545   2.8545   3.1514   3.1514
     3.2671   3.2671   3.8033   3.8033   3.9639   3.9639   4.1193   4.1193
     5.2386   5.2386   5.6752   5.6752   5.9728   5.9728   6.7030   6.7030
     7.3669   7.3670

          k = 0.0000-0.2579 0.0000 ( 36445 PWs)   bands (ev):

   -44.1774 -44.1774 -22.3304 -22.3304 -22.2171 -22.2171 -22.0965 -22.0964
    -7.5992  -7.2071  -6.8020  -6.7473  -6.6912  -5.2273  -5.1734  -4.9671
    -4.8813  -3.8631   0.5851   0.7808   0.8553   1.0460   1.5277   1.6938
     2.3930   2.5348   2.5758   3.0328   3.0578   3.1335   3.1399   3.2317
     3.3141   3.4346   3.8124   4.0016   4.0203   4.0607   4.1361   4.6253
     5.3820   5.4172   5.5081   5.5858   5.9368   6.2101   6.5908   6.6538
     6.9338   7.2652

          k = 0.0000-0.2579 0.1485 ( 36452 PWs)   bands (ev):

   -44.1774 -44.1774 -22.3304 -22.3304 -22.2171 -22.2171 -22.0965 -22.0964
    -7.5620  -7.3026  -6.8166  -6.7969  -6.4626  -5.6528  -5.0153  -4.9037
    -4.6804  -3.9733   0.5904   0.8106   0.9769   1.1066   1.1163   2.1421
     2.1980   2.4122   2.5127   3.0187   3.0685   3.0691   3.1303   3.2006
     3.6049   3.6730   3.7160   3.9413   3.9598   4.1149   4.1669   4.6543
     5.0346   5.0363   5.6695   5.9290   6.1099   6.1308   6.5092   6.7820
     6.8935   7.2565

          k = 0.0000-0.2579-0.2971 ( 36454 PWs)   bands (ev):

   -44.1774 -44.1774 -22.3304 -22.3304 -22.2171 -22.2171 -22.0964 -22.0964
    -7.4551  -7.4551  -6.8140  -6.8140  -6.0891  -6.0891  -4.9572  -4.9572
    -4.2712  -4.2712   0.7523   0.7523   0.9018   0.9018   1.5745   1.5745
     2.4609   2.4609   2.7332   2.7332   3.0554   3.0554   3.1103   3.1103
     3.7742   3.7742   3.8206   3.8206   4.0875   4.0875   4.4490   4.4490
     4.7715   4.7715   5.8742   5.8742   6.3457   6.3457   6.4040   6.4040
     7.2262   7.2262

          k = 1.5243 0.0000 0.0000 ( 36439 PWs)   bands (ev):

   -44.1761 -44.1761 -22.3238 -22.3237 -22.2520 -22.2520 -22.0919 -22.0919
    -7.1453  -6.8821  -6.6412  -6.5251  -6.3181  -5.1788  -5.1371  -4.8186
    -4.7424  -4.4029   0.4597   0.7450   0.8438   1.3924   1.4805   1.5311
     1.6027   1.7458   1.9092   2.2569   2.2694   2.3573   2.6998   3.0930
     3.2292   3.2461   3.2857   3.4723   3.6320   3.6950   3.9738   4.0597
     4.8046   5.2496   5.2983   5.7012   5.9610   6.5701   6.7685   6.7852
     7.1043   7.4921

          k = 1.5243 0.0000 0.1485 ( 36476 PWs)   bands (ev):

   -44.1761 -44.1761 -22.3238 -22.3237 -22.2520 -22.2520 -22.0919 -22.0919
    -7.1136  -6.9244  -6.6467  -6.6122  -6.1260  -5.4638  -4.9862  -4.7845
    -4.7018  -4.4295   0.4971   0.7857   0.9544   1.0886   1.4309   1.4955
     1.5179   1.6515   2.0621   2.1054   2.3741   2.7372   2.9833   3.0709
     3.2356   3.2813   3.2844   3.5230   3.5568   3.6964   3.8134   4.0972
     4.3305   4.6352   5.8292   5.9777   6.2276   6.5234   6.7882   6.8151
     6.9804   7.5023

          k = 1.5243 0.0000-0.2971 ( 36508 PWs)   bands (ev):

   -44.1761 -44.1761 -22.3237 -22.3237 -22.2520 -22.2520 -22.0919 -22.0919
    -7.0268  -7.0268  -6.6509  -6.6509  -5.8070  -5.8070  -4.8798  -4.8798
    -4.5283  -4.5283   0.6484   0.6484   1.0942   1.0942   1.2823   1.2823
     1.5327   1.5327   2.0661   2.0661   2.8862   2.8862   3.1366   3.1366
     3.2567   3.2567   3.3368   3.3368   3.6360   3.6360   3.8986   3.8986
     4.1298   4.1298   6.0516   6.0516   6.6100   6.6100   6.7676   6.7676
     7.0978   7.0978

          k =-0.2541-0.4514 0.0000 ( 36444 PWs)   bands (ev):

   -44.1770 -44.1770 -22.3285 -22.3285 -22.2274 -22.2274 -22.0951 -22.0951
    -7.4625  -7.0889  -6.7767  -6.7340  -6.5905  -5.2138  -5.1484  -4.9281
    -4.8373  -3.9982   0.6581   1.0094   1.0704   1.2500   1.3895   1.5693
     2.0450   2.1546   2.2652   2.3528   2.4154   3.0966   3.1577   3.2225
     3.4791   3.6957   3.7431   3.8883   3.9454   4.0422   4.0562   4.2027
     4.4247   4.6241   5.7711   6.0527   6.4012   6.4167   6.7275   6.9026
     6.9259   7.0154

          k =-0.2541-0.4514 0.1485 ( 36461 PWs)   bands (ev):

   -44.1770 -44.1770 -22.3285 -22.3285 -22.2274 -22.2274 -22.0951 -22.0951
    -7.4260  -7.1748  -6.7943  -6.7816  -6.3735  -5.5931  -5.0108  -4.8663
    -4.6749  -4.0838   0.6520   0.9508   1.1379   1.2326   1.2765   1.7162
     1.9119   2.2005   2.2851   2.4506   2.7090   2.9408   3.1427   3.1587
     3.3466   3.4742   3.8179   3.8550   3.9490   3.9815   4.0513   4.0915
     4.6972   5.0464   5.7737   5.7895   6.1760   6.2267   6.7531   6.7742
     7.1486   7.2309

          k =-0.2541-0.4514-0.2971 ( 36490 PWs)   bands (ev):

   -44.1770 -44.1770 -22.3285 -22.3285 -22.2274 -22.2274 -22.0951 -22.0951
    -7.3214  -7.3214  -6.7981  -6.7981  -6.0089  -6.0089  -4.9359  -4.9359
    -4.3258  -4.3258   0.7428   0.7428   1.2375   1.2375   1.4094   1.4094
     2.1796   2.1796   2.4241   2.4241   2.8700   2.8700   3.1307   3.1307
     3.2265   3.2265   3.7883   3.7883   3.9767   3.9767   4.0645   4.0645
     5.2238   5.2238   5.6594   5.6594   5.9437   5.9437   6.7666   6.7666
     7.3461   7.3461

          k = 0.0000-0.3869 0.0000 ( 36477 PWs)   bands (ev):

   -44.1774 -44.1774 -22.3304 -22.3304 -22.2171 -22.2171 -22.0965 -22.0964
    -7.5813  -7.1858  -6.8219  -6.7818  -6.6874  -5.2377  -5.1705  -4.9704
    -4.8765  -3.8647   0.6081   0.8715   0.9448   1.1161   1.5931   1.7145
     2.4041   2.5188   2.5533   2.8416   3.0399   3.0400   3.0945   3.2729
     3.3074   3.4089   3.8503   3.8783   4.0011   4.0031   4.0059   4.6318
     5.3684   5.3736   5.5249   5.6623   5.9639   6.2377   6.4859   6.7268
     6.9366   7.2894

          k = 0.0000-0.3869 0.1485 ( 36452 PWs)   bands (ev):

   -44.1774 -44.1774 -22.3304 -22.3304 -22.2171 -22.2171 -22.0965 -22.0964
    -7.5439  -7.2821  -6.8424  -6.8219  -6.4618  -5.6498  -5.0337  -4.9029
    -4.6730  -3.9731   0.5997   0.9361   1.0867   1.1154   1.1947   2.1730
     2.2105   2.4242   2.5299   2.7920   2.8285   3.0515   3.1855   3.2334
     3.5890   3.6457   3.7130   3.9151   3.9565   4.0037   4.0674   4.6608
     5.0222   5.0359   5.6988   5.9326   6.0790   6.1344   6.4807   6.7846
     6.9621   7.2109

          k = 0.0000-0.3869-0.2971 ( 36454 PWs)   bands (ev):

   -44.1774 -44.1774 -22.3304 -22.3304 -22.2171 -22.2171 -22.0964 -22.0964
    -7.4362  -7.4362  -6.8400  -6.8400  -6.0858  -6.0858  -4.9663  -4.9663
    -4.2673  -4.2673   0.7469   0.7469   1.0639   1.0639   1.6036   1.6036
     2.4753   2.4753   2.6442   2.6442   2.9489   2.9489   3.0935   3.0935
     3.7719   3.7719   3.8109   3.8109   3.9922   3.9922   4.4378   4.4378
     4.7767   4.7767   5.8321   5.8321   6.3602   6.3602   6.4067   6.4067
     7.1997   7.1997

          k =-2.0325 0.0000 0.0000 ( 36452 PWs)   bands (ev):

   -44.1774 -44.1774 -22.3304 -22.3304 -22.2171 -22.2171 -22.0965 -22.0964
    -7.5735  -7.1765  -6.8255  -6.8015  -6.6858  -5.2422  -5.1693  -4.9709
    -4.8751  -3.8654   0.6101   0.8784   1.0453   1.1361   1.6352   1.7226
     2.4089   2.4756   2.5614   2.6966   2.9730   3.0322   3.1280   3.3047
     3.3582   3.3980   3.7725   3.8869   3.9415   3.9861   4.0009   4.6345
     5.3614   5.3629   5.5319   5.6990   5.9757   6.2455   6.4366   6.7519
     6.9376   7.2044

          k =-2.0325 0.0000 0.1485 ( 36456 PWs)   bands (ev):

   -44.1774 -44.1774 -22.3304 -22.3304 -22.2171 -22.2171 -22.0965 -22.0964
    -7.5360  -7.2730  -6.8523  -6.8340  -6.4614  -5.6485  -5.0408  -4.9030
    -4.6701  -3.9730   0.5980   0.9848   1.1118   1.1490   1.2572   2.1852
     2.2092   2.4294   2.5374   2.6516   2.7435   3.0439   3.1791   3.3002
     3.5825   3.6218   3.7174   3.8827   3.9551   3.9677   4.0377   4.6636
     5.0191   5.0363   5.7146   5.9343   6.0559   6.1387   6.4690   6.7857
     6.9856   7.2602

          k =-2.0325 0.0000-0.2971 ( 36460 PWs)   bands (ev):

   -44.1774 -44.1774 -22.3304 -22.3304 -22.2171 -22.2171 -22.0964 -22.0964
    -7.4279  -7.4279  -6.8513  -6.8513  -6.0844  -6.0844  -4.9700  -4.9700
    -4.2657  -4.2657   0.7423   0.7423   1.1488   1.1488   1.6178   1.6178
     2.4816   2.4816   2.5480   2.5480   2.9475   2.9475   3.0863   3.0863
     3.7596   3.7596   3.8068   3.8068   3.9682   3.9682   4.4339   4.4339
     4.7789   4.7789   5.8139   5.8139   6.3639   6.3639   6.4079   6.4079
     7.1857   7.1857

     the Fermi energy is     5.2503 ev

!    total energy              =   -4240.92074891 Ry

     total all-electron energy =   -150287.614444 Ry
     estimated scf accuracy    <          4.3E-11 Ry
     smearing contrib. (-TS)   =      -0.00008045 Ry
     internal energy E=F+TS    =   -4240.92066846 Ry

     The total energy is F=E-TS. E is the sum of the following terms:
     one-electron contribution =    -163.78117080 Ry
     hartree contribution      =     115.33686113 Ry
     xc contribution           =    -201.39019402 Ry
     ewald contribution        =    -223.57844762 Ry
     one-center paw contrib.   =   -3767.50771715 Ry

     convergence has been achieved in  22 iterations

     Forces acting on atoms (cartesian axes, Ry/au):

     atom    1 type  1   force =     0.00000000   -0.03155348    0.00000000
     atom    2 type  1   force =     0.00000000    0.03155348    0.00000000
     atom    3 type  2   force =     0.00000000    0.00215100    0.00000000
     atom    4 type  2   force =     0.00000000   -0.00215100    0.00000000
     atom    5 type  2   force =     0.00000000    0.00697692   -0.00158160
     atom    6 type  2   force =     0.00000000   -0.00697692    0.00158160
     atom    7 type  2   force =     0.00000000    0.00697692    0.00158160
     atom    8 type  2   force =     0.00000000   -0.00697692   -0.00158160
     atom    9 type  2   force =     0.00000000    0.01959378    0.01010695
     atom   10 type  2   force =     0.00000000   -0.01959378   -0.01010695
     atom   11 type  2   force =     0.00000000    0.01959378   -0.01010695
     atom   12 type  2   force =     0.00000000   -0.01959378    0.01010695

     Total force =     0.064416     Total SCF correction =     0.000009


     Computing stress (Cartesian axis) and pressure

          total   stress  (Ry/bohr**3)                   (kbar)     P=       -5.12
  -0.00002166   0.00000000   0.00000000           -3.19        0.00        0.00
   0.00000000  -0.00003284   0.00000000            0.00       -4.83        0.00
   0.00000000   0.00000000  -0.00004989            0.00        0.00       -7.34

 
     init_run     :     33.35s CPU     33.94s WALL (       1 calls)
     electrons    :   1607.10s CPU   1625.13s WALL (       1 calls)
     forces       :      6.81s CPU      7.06s WALL (       1 calls)
     stress       :     42.87s CPU     43.54s WALL (       1 calls)

     Called by init_run:
     wfcinit      :     28.27s CPU     28.55s WALL (       1 calls)
     potinit      :      1.75s CPU      1.80s WALL (       1 calls)
     hinit0       :      1.70s CPU      1.72s WALL (       1 calls)

     Called by electrons:
     c_bands      :   1317.29s CPU   1324.43s WALL (      23 calls)
     sum_band     :    254.08s CPU    260.13s WALL (      23 calls)
     v_of_rho     :      8.89s CPU      9.56s WALL (      23 calls)
     newd         :     18.60s CPU     22.94s WALL (      23 calls)
     PAW_pot      :      7.66s CPU      7.66s WALL (      23 calls)
     mix_rho      :      1.52s CPU      1.56s WALL (      23 calls)

     Called by c_bands:
     init_us_2    :     14.68s CPU     14.76s WALL (    3087 calls)
     cegterg      :   1220.30s CPU   1226.69s WALL (    1449 calls)

     Called by *egterg:
     cdiaghg      :     31.56s CPU     31.67s WALL (    9452 calls)
     h_psi        :   1036.10s CPU   1042.29s WALL (    9578 calls)
     s_psi        :     53.65s CPU     53.73s WALL (    9578 calls)
     g_psi        :      2.28s CPU      2.30s WALL (    8066 calls)

     Called by h_psi:
     h_psi:calbec :     46.05s CPU     46.16s WALL (    9578 calls)
     vloc_psi     :    932.77s CPU    938.70s WALL (    9578 calls)
     add_vuspsi   :     53.39s CPU     53.46s WALL (    9578 calls)

     General routines
     calbec       :     60.62s CPU     60.76s WALL (   11342 calls)
     fft          :      7.20s CPU      7.42s WALL (     323 calls)
     ffts         :      0.20s CPU      0.20s WALL (      46 calls)
     fftw         :    916.39s CPU    922.08s WALL (  506570 calls)
     interpolate  :      0.64s CPU      0.64s WALL (      23 calls)
 
     Parallel routines
     fft_scatt_xy :    247.48s CPU    249.05s WALL (  506939 calls)
     fft_scatt_yz :    161.41s CPU    162.89s WALL (  506939 calls)
 
     PWSCF        :  28m10.38s CPU  28m30.00s WALL

 
   This run was terminated on:  15:41:16  19Nov2021            

=------------------------------------------------------------------------------=
   JOB DONE.
=------------------------------------------------------------------------------=
