
     Program PWSCF v.6.7MaX starts on 19Nov2021 at 14:46:23 

     This program is part of the open-source Quantum ESPRESSO suite
     for quantum simulation of materials; please cite
         "P. Giannozzi et al., J. Phys.:Condens. Matter 21 395502 (2009);
         "P. Giannozzi et al., J. Phys.:Condens. Matter 29 465901 (2017);
          URL http://www.quantum-espresso.org", 
     in publications or presentations arising from this work. More details at
     http://www.quantum-espresso.org/quote

     Parallel version (MPI), running on    10 processors

     MPI processes distributed on     1 nodes
     R & G space division:  proc/nbgrp/npool/nimage =      10
     Waiting for input...
     Reading input from standard input

     Current dimensions of program PWSCF are:
     Max number of different atomic species (ntypx) = 10
     Max number of k-points (npk) =  40000
     Max angular momentum in pseudopotentials (lmaxx) =  3
     file Zr.pbe-spn-kjpaw_psl.1.0.0.UPF: wavefunction(s)  4S 4P renormalized
     file Te.pbe-n-kjpaw_psl.1.0.0.UPF: wavefunction(s)  5S 5P renormalized

     Subspace diagonalization in iterative solution of the eigenvalue problem:
     a serial algorithm will be used

     Message from routine setup:
     using ibrav=0 with symmetry is DISCOURAGED, use correct ibrav instead
 
     Parallelization info
     --------------------
     sticks:   dense  smooth     PW     G-vecs:    dense   smooth      PW
     Min         734     293     87               115340    29174    4753
     Max         735     295     88               115345    29176    4760
     Sum        7345    2937    873              1153415   291749   47557
 


     bravais-lattice index     =            0
     lattice parameter (alat)  =      15.5510  a.u.
     unit-cell volume          =    3018.5011 (a.u.)^3
     number of atoms/cell      =           12
     number of atomic types    =            2
     number of electrons       =        84.00
     number of Kohn-Sham states=           50
     kinetic-energy cutoff     =      80.0000  Ry
     charge density cutoff     =     800.0000  Ry
     scf convergence threshold =      1.0E-10
     mixing beta               =       0.7000
     number of iterations used =            8  plain     mixing
     Exchange-correlation= SLA  PW   PBX  PBC
                           (   1   4   3   4   0   0   0)

     celldm(1)=  15.551040  celldm(2)=   0.000000  celldm(3)=   0.000000
     celldm(4)=   0.000000  celldm(5)=   0.000000  celldm(6)=   0.000000

     crystal axes: (cart. coord. in units of alat)
               a(1) = (   0.246007  -0.969268   0.000000 )  
               a(2) = (   0.246007   0.969268   0.000000 )  
               a(3) = (   0.000000   0.000000   1.683031 )  

     reciprocal axes: (cart. coord. in units 2 pi/alat)
               b(1) = (  2.032465 -0.515853  0.000000 )  
               b(2) = (  2.032465  0.515853  0.000000 )  
               b(3) = (  0.000000  0.000000  0.594166 )  


     PseudoPot. # 1 for Zr read from file:
     pseudo/Zr.pbe-spn-kjpaw_psl.1.0.0.UPF
     MD5 check sum: 02112c41713a0468aff2bb39ef194e36
     Pseudo is Projector augmented-wave + core cor, Zval = 12.0
     Generated using &quot;atomic&quot; code by A. Dal Corso  v.6.2.2
     Shape of augmentation charge: PSQ
     Using radial grid of 1225 points,  6 beta functions with: 
                l(1) =   0
                l(2) =   0
                l(3) =   1
                l(4) =   1
                l(5) =   2
                l(6) =   2
     Q(r) pseudized with 0 coefficients 


     PseudoPot. # 2 for Te read from file:
     pseudo/Te.pbe-n-kjpaw_psl.1.0.0.UPF
     MD5 check sum: 66247bff2bd9dbf220fbb0bf5ab56e9d
     Pseudo is Projector augmented-wave + core cor, Zval =  6.0
     Generated using &quot;atomic&quot; code by A. Dal Corso  v.6.3
     Shape of augmentation charge: PSQ
     Using radial grid of 1245 points,  6 beta functions with: 
                l(1) =   0
                l(2) =   0
                l(3) =   1
                l(4) =   1
                l(5) =   2
                l(6) =   2
     Q(r) pseudized with 0 coefficients 


     atomic species   valence    mass     pseudopotential
        Zr            12.00    91.22000     Zr( 1.00)
        Te             6.00   127.60000     Te( 1.00)

      8 Sym. Ops., with inversion, found ( 4 have fractional translation)



   Cartesian axes

     site n.     atom                  positions (alat units)
         1           Zr  tau(   1) = (   0.0000000   0.6091608   0.4207578  )
         2           Zr  tau(   2) = (   0.2460067   0.3601073   1.2622733  )
         3           Te  tau(   3) = (   0.2460067   0.3343198   0.4207578  )
         4           Te  tau(   4) = (   0.0000000   0.6349483   1.2622733  )
         5           Te  tau(   5) = (   0.2460067   0.8082083   0.2509593  )
         6           Te  tau(   6) = (   0.0000000   0.1610598   1.4320718  )
         7           Te  tau(   7) = (   0.2460067   0.8082083   0.5905563  )
         8           Te  tau(   8) = (   0.0000000   0.1610598   1.0924748  )
         9           Te  tau(   9) = (   0.0000000   0.4086670   0.7249434  )
        10           Te  tau(  10) = (   0.2460067   0.5606011   0.9580876  )
        11           Te  tau(  11) = (   0.0000000   0.4086670   0.1165721  )
        12           Te  tau(  12) = (   0.2460067   0.5606011   1.5664590  )

     number of k points=    63  Methfessel-Paxton smearing, width (Ry)=  0.0030
                       cart. coord. in units 2pi/alat
        k(    1) = (   0.0000000   0.0000000   0.0000000), wk =   0.0078125
        k(    2) = (   0.0000000   0.0000000   0.1485415), wk =   0.0156250
        k(    3) = (   0.0000000   0.0000000  -0.2970830), wk =   0.0078125
        k(    4) = (   0.2540581   0.0644816   0.0000000), wk =   0.0312500
        k(    5) = (   0.2540581   0.0644816   0.1485415), wk =   0.0625000
        k(    6) = (   0.2540581   0.0644816  -0.2970830), wk =   0.0312500
        k(    7) = (   0.5081162   0.1289633   0.0000000), wk =   0.0312500
        k(    8) = (   0.5081162   0.1289633   0.1485415), wk =   0.0625000
        k(    9) = (   0.5081162   0.1289633  -0.2970830), wk =   0.0312500
        k(   10) = (   0.7621743   0.1934449   0.0000000), wk =   0.0312500
        k(   11) = (   0.7621743   0.1934449   0.1485415), wk =   0.0625000
        k(   12) = (   0.7621743   0.1934449  -0.2970830), wk =   0.0312500
        k(   13) = (  -1.0162324  -0.2579266   0.0000000), wk =   0.0156250
        k(   14) = (  -1.0162324  -0.2579266   0.1485415), wk =   0.0312500
        k(   15) = (  -1.0162324  -0.2579266  -0.2970830), wk =   0.0156250
        k(   16) = (   0.5081162   0.0000000   0.0000000), wk =   0.0156250
        k(   17) = (   0.5081162   0.0000000   0.1485415), wk =   0.0312500
        k(   18) = (   0.5081162   0.0000000  -0.2970830), wk =   0.0156250
        k(   19) = (   0.7621743   0.0644816   0.0000000), wk =   0.0312500
        k(   20) = (   0.7621743   0.0644816   0.1485415), wk =   0.0625000
        k(   21) = (   0.7621743   0.0644816  -0.2970830), wk =   0.0312500
        k(   22) = (   1.0162324   0.1289633   0.0000000), wk =   0.0312500
        k(   23) = (   1.0162324   0.1289633   0.1485415), wk =   0.0625000
        k(   24) = (   1.0162324   0.1289633  -0.2970830), wk =   0.0312500
        k(   25) = (  -0.7621743  -0.3224082   0.0000000), wk =   0.0312500
        k(   26) = (  -0.7621743  -0.3224082   0.1485415), wk =   0.0625000
        k(   27) = (  -0.7621743  -0.3224082  -0.2970830), wk =   0.0312500
        k(   28) = (  -0.5081162  -0.2579266   0.0000000), wk =   0.0312500
        k(   29) = (  -0.5081162  -0.2579266   0.1485415), wk =   0.0625000
        k(   30) = (  -0.5081162  -0.2579266  -0.2970830), wk =   0.0312500
        k(   31) = (  -0.2540581  -0.1934449   0.0000000), wk =   0.0312500
        k(   32) = (  -0.2540581  -0.1934449   0.1485415), wk =   0.0625000
        k(   33) = (  -0.2540581  -0.1934449  -0.2970830), wk =   0.0312500
        k(   34) = (   0.0000000  -0.1289633   0.0000000), wk =   0.0156250
        k(   35) = (   0.0000000  -0.1289633   0.1485415), wk =   0.0312500
        k(   36) = (   0.0000000  -0.1289633  -0.2970830), wk =   0.0156250
        k(   37) = (   1.0162324   0.0000000   0.0000000), wk =   0.0156250
        k(   38) = (   1.0162324   0.0000000   0.1485415), wk =   0.0312500
        k(   39) = (   1.0162324   0.0000000  -0.2970830), wk =   0.0156250
        k(   40) = (   1.2702905   0.0644816   0.0000000), wk =   0.0312500
        k(   41) = (   1.2702905   0.0644816   0.1485415), wk =   0.0625000
        k(   42) = (   1.2702905   0.0644816  -0.2970830), wk =   0.0312500
        k(   43) = (  -0.5081162  -0.3868899   0.0000000), wk =   0.0312500
        k(   44) = (  -0.5081162  -0.3868899   0.1485415), wk =   0.0625000
        k(   45) = (  -0.5081162  -0.3868899  -0.2970830), wk =   0.0312500
        k(   46) = (  -0.2540581  -0.3224082   0.0000000), wk =   0.0312500
        k(   47) = (  -0.2540581  -0.3224082   0.1485415), wk =   0.0625000
        k(   48) = (  -0.2540581  -0.3224082  -0.2970830), wk =   0.0312500
        k(   49) = (   0.0000000  -0.2579266   0.0000000), wk =   0.0156250
        k(   50) = (   0.0000000  -0.2579266   0.1485415), wk =   0.0312500
        k(   51) = (   0.0000000  -0.2579266  -0.2970830), wk =   0.0156250
        k(   52) = (   1.5243485   0.0000000   0.0000000), wk =   0.0156250
        k(   53) = (   1.5243485   0.0000000   0.1485415), wk =   0.0312500
        k(   54) = (   1.5243485   0.0000000  -0.2970830), wk =   0.0156250
        k(   55) = (  -0.2540581  -0.4513715   0.0000000), wk =   0.0312500
        k(   56) = (  -0.2540581  -0.4513715   0.1485415), wk =   0.0625000
        k(   57) = (  -0.2540581  -0.4513715  -0.2970830), wk =   0.0312500
        k(   58) = (   0.0000000  -0.3868899   0.0000000), wk =   0.0156250
        k(   59) = (   0.0000000  -0.3868899   0.1485415), wk =   0.0312500
        k(   60) = (   0.0000000  -0.3868899  -0.2970830), wk =   0.0156250
        k(   61) = (  -2.0324647   0.0000000   0.0000000), wk =   0.0078125
        k(   62) = (  -2.0324647   0.0000000   0.1485415), wk =   0.0156250
        k(   63) = (  -2.0324647   0.0000000  -0.2970830), wk =   0.0078125

     Dense  grid:  1153415 G-vectors     FFT dimensions: ( 144, 144, 240)

     Smooth grid:   291749 G-vectors     FFT dimensions: (  90,  90, 150)

     Estimated max dynamical RAM per process >     657.19 MB

     Estimated total dynamical RAM >       6.42 GB

     Initial potential from superposition of free atoms

     starting charge   83.99353, renormalised to   84.00000
     Starting wfcs are   66 randomized atomic wfcs
     Checking if some PAW data can be deallocated... 

     total cpu time spent up to now is       42.2 secs

     Self-consistent Calculation

     iteration #  1     ecut=    80.00 Ry     beta= 0.70
     Davidson diagonalization with overlap
     ethr =  1.00E-02,  avg # of iterations =  2.0

     Threshold (ethr) on eigenvalues was too large:
     Diagonalizing with lowered threshold

     Davidson diagonalization with overlap
     ethr =  3.91E-04,  avg # of iterations =  4.0

     total cpu time spent up to now is      203.5 secs

     total energy              =   -4240.72525482 Ry
     estimated scf accuracy    <       0.42980450 Ry

     iteration #  2     ecut=    80.00 Ry     beta= 0.70
     Davidson diagonalization with overlap
     ethr =  5.12E-04,  avg # of iterations =  7.8

     total cpu time spent up to now is      314.2 secs

     total energy              =   -4240.62913644 Ry
     estimated scf accuracy    <       2.14738969 Ry

     iteration #  3     ecut=    80.00 Ry     beta= 0.70
     Davidson diagonalization with overlap
     ethr =  5.12E-04,  avg # of iterations =  5.3

     total cpu time spent up to now is      408.3 secs

     total energy              =   -4240.92598900 Ry
     estimated scf accuracy    <       0.01728199 Ry

     iteration #  4     ecut=    80.00 Ry     beta= 0.70
     Davidson diagonalization with overlap
     c_bands:  1 eigenvalues not converged
     c_bands:  1 eigenvalues not converged
     c_bands:  2 eigenvalues not converged
     c_bands:  1 eigenvalues not converged
     c_bands:  1 eigenvalues not converged
     c_bands:  1 eigenvalues not converged
     c_bands:  2 eigenvalues not converged
     c_bands:  1 eigenvalues not converged
     c_bands:  2 eigenvalues not converged
     c_bands:  1 eigenvalues not converged
     c_bands:  1 eigenvalues not converged
     c_bands:  2 eigenvalues not converged
     c_bands:  2 eigenvalues not converged
     c_bands:  1 eigenvalues not converged
     c_bands:  1 eigenvalues not converged
     c_bands:  2 eigenvalues not converged
     ethr =  2.06E-05,  avg # of iterations = 17.2

     total cpu time spent up to now is      577.3 secs

     total energy              =   -4240.94222153 Ry
     estimated scf accuracy    <       0.09635789 Ry

     iteration #  5     ecut=    80.00 Ry     beta= 0.70
     Davidson diagonalization with overlap
     ethr =  2.06E-05,  avg # of iterations =  5.9

     total cpu time spent up to now is      664.7 secs

     total energy              =   -4240.94468307 Ry
     estimated scf accuracy    <       0.01988301 Ry

     iteration #  6     ecut=    80.00 Ry     beta= 0.70
     Davidson diagonalization with overlap
     ethr =  2.06E-05,  avg # of iterations =  2.9

     total cpu time spent up to now is      738.3 secs

     total energy              =   -4240.94609813 Ry
     estimated scf accuracy    <       0.00219684 Ry

     iteration #  7     ecut=    80.00 Ry     beta= 0.70
     Davidson diagonalization with overlap
     c_bands:  1 eigenvalues not converged
     c_bands:  1 eigenvalues not converged
     c_bands:  1 eigenvalues not converged
     c_bands:  1 eigenvalues not converged
     c_bands:  1 eigenvalues not converged
     c_bands:  1 eigenvalues not converged
     ethr =  2.62E-06,  avg # of iterations = 13.9

     total cpu time spent up to now is      868.2 secs

     total energy              =   -4240.94737046 Ry
     estimated scf accuracy    <       0.00257020 Ry

     iteration #  8     ecut=    80.00 Ry     beta= 0.70
     Davidson diagonalization with overlap
     c_bands:  1 eigenvalues not converged
     ethr =  2.62E-06,  avg # of iterations =  2.9

     total cpu time spent up to now is      937.8 secs

     total energy              =   -4240.94739124 Ry
     estimated scf accuracy    <       0.00049365 Ry

     iteration #  9     ecut=    80.00 Ry     beta= 0.70
     Davidson diagonalization with overlap
     ethr =  5.88E-07,  avg # of iterations =  6.4

     total cpu time spent up to now is     1023.5 secs

     total energy              =   -4240.94751565 Ry
     estimated scf accuracy    <       0.00000624 Ry

     iteration # 10     ecut=    80.00 Ry     beta= 0.70
     Davidson diagonalization with overlap
     ethr =  7.42E-09,  avg # of iterations = 10.0

     total cpu time spent up to now is     1154.6 secs

     total energy              =   -4240.94752804 Ry
     estimated scf accuracy    <       0.00001738 Ry

     iteration # 11     ecut=    80.00 Ry     beta= 0.70
     Davidson diagonalization with overlap
     ethr =  7.42E-09,  avg # of iterations =  3.9

     total cpu time spent up to now is     1238.6 secs

     total energy              =   -4240.94753054 Ry
     estimated scf accuracy    <       0.00000013 Ry

     iteration # 12     ecut=    80.00 Ry     beta= 0.70
     Davidson diagonalization with overlap
     ethr =  1.56E-10,  avg # of iterations =  9.2

     total cpu time spent up to now is     1362.9 secs

     total energy              =   -4240.94753072 Ry
     estimated scf accuracy    <       0.00000016 Ry

     iteration # 13     ecut=    80.00 Ry     beta= 0.70
     Davidson diagonalization with overlap
     ethr =  1.56E-10,  avg # of iterations =  1.9

     total cpu time spent up to now is     1431.0 secs

     total energy              =   -4240.94753072 Ry
     estimated scf accuracy    <       0.00000002 Ry

     iteration # 14     ecut=    80.00 Ry     beta= 0.70
     Davidson diagonalization with overlap
     ethr =  2.74E-11,  avg # of iterations =  7.3

     total cpu time spent up to now is     1533.6 secs

     total energy              =   -4240.94753074 Ry
     estimated scf accuracy    <       0.00000002 Ry

     iteration # 15     ecut=    80.00 Ry     beta= 0.70
     Davidson diagonalization with overlap
     ethr =  2.05E-11,  avg # of iterations =  1.6

     total cpu time spent up to now is     1600.0 secs

     total energy              =   -4240.94753074 Ry
     estimated scf accuracy    <          4.7E-09 Ry

     iteration # 16     ecut=    80.00 Ry     beta= 0.70
     Davidson diagonalization with overlap
     ethr =  5.65E-12,  avg # of iterations =  5.0

     total cpu time spent up to now is     1672.7 secs

     End of self-consistent calculation

          k = 0.0000 0.0000 0.0000 ( 36359 PWs)   bands (ev):

   -44.1467 -44.1467 -22.2837 -22.2837 -22.1834 -22.1834 -22.0701 -22.0700
    -7.7083  -7.1677  -7.1481  -6.8030  -6.4606  -5.3643  -5.0518  -4.8814
    -4.8278  -3.8554   0.4101   0.7172   0.7593   1.0819   1.5069   1.5457
     2.3979   2.4260   2.6691   2.9102   2.9990   3.0138   3.1554   3.4835
     3.6070   3.6814   3.8925   4.0523   4.1609   4.3080   4.3256   4.6383
     5.0160   5.5429   5.6023   5.6953   5.8435   6.0005   6.3142   6.8230
     6.9493   7.2811

          k = 0.0000 0.0000 0.1485 ( 36415 PWs)   bands (ev):

   -44.1467 -44.1467 -22.2837 -22.2837 -22.1834 -22.1834 -22.0701 -22.0700
    -7.6696  -7.3771  -6.9634  -6.8150  -6.3648  -5.6911  -4.8936  -4.8382
    -4.6930  -3.9727   0.4617   0.7546   0.9095   1.0418   1.0553   1.9814
     2.0968   2.4257   2.6077   2.9382   2.9927   3.1133   3.3695   3.3702
     3.6737   3.7627   3.8798   4.0475   4.1084   4.3277   4.3403   4.6490
     4.8624   5.0419   5.7501   5.9473   5.9997   6.0188   6.6127   6.6417
     6.7786   7.2465

          k = 0.0000 0.0000-0.2971 ( 36410 PWs)   bands (ev):

   -44.1467 -44.1467 -22.2837 -22.2837 -22.1834 -22.1834 -22.0701 -22.0701
    -7.5561  -7.5561  -6.8580  -6.8580  -6.0839  -6.0839  -4.8636  -4.8636
    -4.2827  -4.2827   0.6587   0.6587   0.8812   0.8812   1.4083   1.4083
     2.5033   2.5033   2.6798   2.6798   2.9729   2.9729   3.4165   3.4165
     3.8542   3.8542   3.9487   3.9487   4.3301   4.3301   4.4099   4.4099
     4.7048   4.7048   5.9583   5.9583   6.2250   6.2250   6.3869   6.3869
     7.1087   7.1087

          k = 0.2541 0.0645 0.0000 ( 36396 PWs)   bands (ev):

   -44.1463 -44.1463 -22.2817 -22.2817 -22.1933 -22.1933 -22.0689 -22.0688
    -7.5937  -7.0707  -7.0617  -6.7563  -6.3991  -5.3248  -5.0497  -4.8398
    -4.7853  -3.9972   0.4970   0.8500   0.8929   1.2004   1.3323   1.4212
     1.9073   1.9923   2.1923   2.5400   2.5818   3.0669   3.4157   3.6886
     3.7066   3.7358   3.7794   3.7851   4.0104   4.2070   4.2410   4.2546
     4.4728   4.6565   5.7346   5.9831   6.2588   6.5528   6.6209   6.8270
     7.0055   7.1489

          k = 0.2541 0.0645 0.1485 ( 36423 PWs)   bands (ev):

   -44.1464 -44.1463 -22.2817 -22.2817 -22.1933 -22.1933 -22.0689 -22.0688
    -7.5560  -7.2727  -6.8931  -6.7669  -6.2975  -5.6363  -4.8714  -4.7978
    -4.6986  -4.0912   0.5362   0.8897   0.9734   0.9826   1.1542   1.5549
     1.8384   2.2963   2.3912   2.5356   2.5522   2.9307   3.2851   3.3116
     3.6211   3.7062   3.8767   3.9058   4.0095   4.1105   4.2564   4.3000
     4.6869   4.9758   5.8159   5.8562   6.2014   6.2698   6.4603   6.6960
     7.2479   7.3064

          k = 0.2541 0.0645-0.2971 ( 36436 PWs)   bands (ev):

   -44.1464 -44.1464 -22.2817 -22.2817 -22.1933 -22.1933 -22.0688 -22.0688
    -7.4455  -7.4455  -6.8040  -6.8040  -6.0157  -6.0157  -4.8286  -4.8286
    -4.3485  -4.3485   0.6898   0.6898   0.9912   0.9912   1.2475   1.2475
     2.2924   2.2924   2.5184   2.5184   2.6788   2.6788   3.1269   3.1269
     3.6047   3.6047   3.8892   3.8892   4.0592   4.0592   4.2995   4.2995
     5.1285   5.1285   5.7556   5.7556   6.1048   6.1048   6.4531   6.4531
     7.4350   7.4351

          k = 0.5081 0.1290 0.0000 ( 36499 PWs)   bands (ev):

   -44.1454 -44.1454 -22.2770 -22.2770 -22.2172 -22.2172 -22.0659 -22.0659
    -7.2711  -6.8888  -6.7556  -6.6276  -6.2032  -5.2462  -5.0990  -4.7307
    -4.6805  -4.4244   0.5532   0.6245   0.6962   1.2047   1.2621   1.5053
     1.6742   1.7773   2.0463   2.0824   2.1663   2.2953   2.3391   3.3013
     3.3908   3.4547   3.4855   3.5848   3.7679   3.8781   3.9219   4.1593
     4.5420   5.2261   5.4492   5.9534   5.9745   6.5580   6.5713   6.8801
     7.4118   7.5661

          k = 0.5081 0.1290 0.1485 ( 36476 PWs)   bands (ev):

   -44.1454 -44.1454 -22.2770 -22.2770 -22.2172 -22.2172 -22.0659 -22.0659
    -7.2373  -6.9972  -6.6998  -6.6347  -6.0928  -5.5048  -4.9118  -4.7087
    -4.6808  -4.4565   0.5101   0.7091   0.8199   1.0617   1.2399   1.4212
     1.4809   1.6203   2.0287   2.0829   2.3246   2.5115   2.8058   3.3261
     3.3900   3.4188   3.4946   3.5822   3.6650   3.7547   3.8459   4.2186
     4.3638   4.5575   6.0649   6.1282   6.2428   6.5623   6.6139   6.7500
     7.2521   7.4925

          k = 0.5081 0.1290-0.2971 ( 36466 PWs)   bands (ev):

   -44.1454 -44.1454 -22.2770 -22.2770 -22.2172 -22.2172 -22.0659 -22.0659
    -7.1400  -7.1400  -6.6565  -6.6565  -5.8278  -5.8278  -4.7810  -4.7810
    -4.5555  -4.5555   0.5976   0.5976   1.0749   1.0749   1.1985   1.1985
     1.3830   1.3830   2.0570   2.0570   2.7483   2.7483   3.1309   3.1309
     3.3681   3.3681   3.5510   3.5510   3.7003   3.7003   3.8249   3.8249
     4.3031   4.3031   6.3027   6.3027   6.5419   6.5419   6.7935   6.7935
     7.1040   7.1040

          k = 0.7622 0.1934 0.0000 ( 36521 PWs)   bands (ev):

   -44.1445 -44.1445 -22.2722 -22.2722 -22.2409 -22.2409 -22.0630 -22.0629
    -6.8648  -6.7266  -6.3820  -6.2922  -5.8717  -5.3239  -5.2511  -5.0728
    -4.6082  -4.5729   0.0113   0.1920   0.6199   1.0955   1.1195   1.2455
     1.4762   1.5967   1.9287   1.9945   2.2668   2.4082   2.4502   2.7645
     2.8147   3.2600   3.3141   3.3904   3.6327   3.6818   3.7589   3.7813
     3.9268   4.5655   5.8016   6.2243   6.2959   6.7491   6.7689   6.8674
     7.2404   7.7376

          k = 0.7622 0.1934 0.1485 ( 36503 PWs)   bands (ev):

   -44.1445 -44.1445 -22.2722 -22.2722 -22.2409 -22.2409 -22.0630 -22.0629
    -6.8454  -6.7468  -6.3800  -6.3260  -5.7831  -5.4247  -5.1983  -5.0913
    -4.5982  -4.5742   0.0688   0.3135   0.4935   0.9470   1.1040   1.2117
     1.4914   1.6504   1.7872   2.0758   2.1358   2.6350   2.6912   2.8022
     2.8718   3.1251   3.2718   3.3865   3.5048   3.6225   3.6616   3.9130
     3.9838   4.6453   5.4954   6.2809   6.5848   6.6472   6.8082   6.9293
     7.0164   7.5099

          k = 0.7622 0.1934-0.2971 ( 36522 PWs)   bands (ev):

   -44.1445 -44.1445 -22.2722 -22.2722 -22.2409 -22.2409 -22.0630 -22.0630
    -6.7967  -6.7967  -6.3658  -6.3658  -5.6021  -5.6021  -5.1383  -5.1383
    -4.5820  -4.5820   0.2431   0.2431   0.6448   0.6448   1.0750   1.0750
     1.5719   1.5719   1.9985   1.9985   2.3676   2.3676   2.8003   2.8003
     2.9952   2.9952   3.3673   3.3673   3.5813   3.5813   3.8245   3.8245
     4.1508   4.1508   6.0349   6.0349   6.3961   6.3961   6.8915   6.8915
     7.3493   7.3493

          k =-1.0162-0.2579 0.0000 ( 36506 PWs)   bands (ev):

   -44.1442 -44.1441 -22.2700 -22.2700 -22.2509 -22.2509 -22.0617 -22.0617
    -6.6968  -6.6768  -5.8494  -5.8383  -5.7690  -5.7587  -5.4501  -5.4494
    -4.5510  -4.5294   0.0502   0.0751   0.3914   0.4117   1.0111   1.0201
     1.4662   1.6718   2.2330   2.3695   2.3743   2.3755   2.7888   2.8148
     2.8182   2.8940   3.2477   3.2626   3.3048   3.4630   3.5720   3.6676
     3.7849   3.9877   6.4284   6.4550   6.4967   6.5794   6.9670   7.0448
     7.0560   7.0631

          k =-1.0162-0.2579 0.1485 ( 36506 PWs)   bands (ev):

   -44.1442 -44.1441 -22.2700 -22.2700 -22.2509 -22.2509 -22.0617 -22.0617
    -6.6931  -6.6789  -5.8642  -5.8555  -5.7554  -5.7493  -5.4422  -5.4421
    -4.5525  -4.5373  -0.0425  -0.0345   0.6144   0.6206   1.0197   1.0429
     1.4635   1.5870   1.9416   2.0246   2.3741   2.3880   2.7334   2.7336
     2.9458   2.9948   3.1469   3.2059   3.5520   3.5643   3.7006   3.7420
     4.0660   4.1134   5.9089   5.9203   6.4229   6.4970   6.9819   7.0158
     7.2622   7.2944

          k =-1.0162-0.2579-0.2971 ( 36528 PWs)   bands (ev):

   -44.1442 -44.1442 -22.2700 -22.2700 -22.2509 -22.2509 -22.0617 -22.0617
    -6.6853  -6.6853  -5.8727  -5.8727  -5.7439  -5.7439  -5.4344  -5.4344
    -4.5496  -4.5496  -0.1003  -0.1003   0.9164   0.9164   0.9549   0.9549
     1.5566   1.5566   1.6268   1.6268   2.3744   2.3744   2.7773   2.7773
     2.9293   2.9293   3.1761   3.1761   3.6131   3.6131   3.7862   3.7862
     4.4990   4.4990   5.3856   5.3856   6.3839   6.3839   7.0215   7.0215
     7.3425   7.3425

          k = 0.5081 0.0000 0.0000 ( 36503 PWs)   bands (ev):

   -44.1454 -44.1454 -22.2770 -22.2770 -22.2172 -22.2172 -22.0659 -22.0659
    -7.2765  -6.8905  -6.7566  -6.6214  -6.1991  -5.2469  -5.0958  -4.7260
    -4.6863  -4.4239   0.5537   0.6309   0.6909   1.1752   1.2570   1.4839
     1.6770   1.7828   2.0666   2.0689   2.1250   2.2997   2.3345   3.2855
     3.4101   3.4288   3.5425   3.5989   3.7740   3.8639   3.9678   4.1964
     4.5442   5.2250   5.4550   5.9519   5.9907   6.5182   6.5203   6.9155
     7.4352   7.5761

          k = 0.5081 0.0000 0.1485 ( 36453 PWs)   bands (ev):

   -44.1454 -44.1454 -22.2770 -22.2770 -22.2172 -22.2172 -22.0659 -22.0659
    -7.2426  -7.0012  -6.6966  -6.6285  -6.0907  -5.5052  -4.9062  -4.7107
    -4.6810  -4.4574   0.5096   0.7041   0.8240   1.0635   1.2156   1.4325
     1.4439   1.6117   2.0242   2.0890   2.3327   2.4795   2.7993   3.3139
     3.3906   3.4508   3.4967   3.5922   3.6601   3.8167   3.8402   4.2548
     4.3783   4.5556   6.0624   6.1427   6.2532   6.5120   6.5780   6.7812
     7.2761   7.4984

          k = 0.5081 0.0000-0.2971 ( 36452 PWs)   bands (ev):

   -44.1454 -44.1454 -22.2770 -22.2770 -22.2172 -22.2172 -22.0659 -22.0659
    -7.1450  -7.1450  -6.6508  -6.6508  -5.8277  -5.8277  -4.7769  -4.7769
    -4.5583  -4.5583   0.5938   0.5938   1.0749   1.0749   1.2176   1.2176
     1.3387   1.3387   2.0578   2.0578   2.7393   2.7393   3.1127   3.1127
     3.3638   3.3638   3.5897   3.5897   3.7183   3.7183   3.8273   3.8273
     4.3260   4.3260   6.3184   6.3184   6.5064   6.5064   6.8095   6.8095
     7.1057   7.1057

          k = 0.7622 0.0645 0.0000 ( 36505 PWs)   bands (ev):

   -44.1445 -44.1445 -22.2722 -22.2722 -22.2409 -22.2409 -22.0630 -22.0629
    -6.8739  -6.7246  -6.3731  -6.2943  -5.8712  -5.3198  -5.2519  -5.0723
    -4.6005  -4.5817   0.0061   0.2031   0.6416   1.1073   1.1278   1.2598
     1.4357   1.5553   1.9043   2.0099   2.2457   2.3674   2.4324   2.7373
     2.8010   3.3141   3.3410   3.4050   3.6143   3.6510   3.7820   3.8266
     3.9446   4.6055   5.7996   6.2359   6.2655   6.7186   6.8246   6.8265
     7.2609   7.5928

          k = 0.7622 0.0645 0.1485 ( 36509 PWs)   bands (ev):

   -44.1445 -44.1445 -22.2722 -22.2722 -22.2409 -22.2409 -22.0630 -22.0629
    -6.8537  -6.7475  -6.3713  -6.3244  -5.7838  -5.4244  -5.1960  -5.0904
    -4.5929  -4.5804   0.0685   0.3187   0.5029   0.9635   1.1056   1.2271
     1.4556   1.6500   1.8129   2.0028   2.0653   2.6534   2.6759   2.7783
     2.8576   3.1266   3.3346   3.4013   3.4765   3.6367   3.6803   3.9313
     4.0252   4.6439   5.5218   6.2626   6.5916   6.6415   6.8242   6.9263
     6.9941   7.5285

          k = 0.7622 0.0645-0.2971 ( 36472 PWs)   bands (ev):

   -44.1445 -44.1445 -22.2722 -22.2722 -22.2409 -22.2409 -22.0630 -22.0630
    -6.8022  -6.8022  -6.3592  -6.3592  -5.6034  -5.6034  -5.1362  -5.1362
    -4.5824  -4.5824   0.2481   0.2481   0.6397   0.6397   1.0997   1.0997
     1.5655   1.5655   1.9500   1.9500   2.3347   2.3347   2.7976   2.7976
     2.9872   2.9872   3.4314   3.4314   3.5780   3.5780   3.8137   3.8137
     4.1739   4.1739   6.0595   6.0595   6.3974   6.3974   6.8577   6.8577
     7.3762   7.3762

          k = 1.0162 0.1290 0.0000 ( 36514 PWs)   bands (ev):

   -44.1442 -44.1441 -22.2700 -22.2700 -22.2509 -22.2509 -22.0617 -22.0617
    -6.6968  -6.6768  -5.8490  -5.8386  -5.7690  -5.7587  -5.4502  -5.4493
    -4.5510  -4.5294   0.0442   0.0812   0.3862   0.4170   1.0057   1.0270
     1.4716   1.6630   2.2348   2.3621   2.3642   2.3806   2.7880   2.8108
     2.8432   2.8957   3.2414   3.2622   3.3071   3.4551   3.5949   3.6536
     3.7671   3.9998   6.4216   6.4627   6.4918   6.5852   6.9806   7.0469
     7.0552   7.0581

          k = 1.0162 0.1290 0.1485 ( 36524 PWs)   bands (ev):

   -44.1442 -44.1441 -22.2700 -22.2700 -22.2509 -22.2509 -22.0617 -22.0617
    -6.6931  -6.6789  -5.8640  -5.8557  -5.7554  -5.7493  -5.4425  -5.4417
    -4.5525  -4.5373  -0.0447  -0.0327   0.6147   0.6209   1.0234   1.0399
     1.4682   1.5831   1.9515   2.0105   2.3692   2.3837   2.6874   2.7874
     2.9617   3.0091   3.1258   3.2039   3.5329   3.6024   3.6921   3.7242
     4.0513   4.1325   5.8992   5.9328   6.4200   6.4995   6.9886   7.0145
     7.2670   7.2900

          k = 1.0162 0.1290-0.2971 ( 36516 PWs)   bands (ev):

   -44.1442 -44.1442 -22.2700 -22.2700 -22.2509 -22.2509 -22.0617 -22.0617
    -6.6853  -6.6853  -5.8727  -5.8727  -5.7439  -5.7439  -5.4345  -5.4345
    -4.5496  -4.5496  -0.1004  -0.1004   0.9151   0.9151   0.9571   0.9571
     1.5565   1.5565   1.6281   1.6281   2.3645   2.3645   2.7614   2.7614
     2.9803   2.9803   3.1487   3.1487   3.6185   3.6185   3.7800   3.7800
     4.4994   4.4994   5.3877   5.3877   6.3835   6.3835   7.0236   7.0236
     7.3427   7.3427

          k =-0.7622-0.3224 0.0000 ( 36511 PWs)   bands (ev):

   -44.1445 -44.1445 -22.2722 -22.2722 -22.2409 -22.2409 -22.0630 -22.0629
    -6.8503  -6.7307  -6.3947  -6.2892  -5.8726  -5.3298  -5.2500  -5.0735
    -4.6145  -4.5650   0.0188   0.1766   0.5907   1.0670   1.1367   1.2270
     1.4994   1.6619   1.9748   1.9795   2.3188   2.4354   2.4757   2.8011
     2.8311   3.1857   3.2914   3.4062   3.5892   3.6582   3.7387   3.8121
     3.8882   4.4997   5.8045   6.2154   6.3403   6.6870   6.7957   6.9341
     7.2042   7.5803

          k =-0.7622-0.3224 0.1485 ( 36492 PWs)   bands (ev):

   -44.1445 -44.1445 -22.2722 -22.2722 -22.2409 -22.2409 -22.0630 -22.0629
    -6.8324  -6.7467  -6.3924  -6.3284  -5.7821  -5.4250  -5.2016  -5.0926
    -4.6025  -4.5686   0.0686   0.3079   0.4791   0.9249   1.1113   1.1904
     1.5364   1.6469   1.7668   2.1818   2.2306   2.6183   2.7008   2.8290
     2.8873   3.1450   3.1899   3.3722   3.4795   3.6206   3.6603   3.8818
     3.9180   4.6460   5.4602   6.3104   6.5610   6.6519   6.7885   6.9621
     7.0425   7.4761

          k =-0.7622-0.3224-0.2971 ( 36508 PWs)   bands (ev):

   -44.1445 -44.1445 -22.2722 -22.2722 -22.2409 -22.2409 -22.0630 -22.0630
    -6.7888  -6.7888  -6.3754  -6.3754  -5.6003  -5.6003  -5.1412  -5.1412
    -4.5815  -4.5815   0.2359   0.2359   0.6519   0.6519   1.0464   1.0464
     1.5791   1.5791   2.0533   2.0533   2.4332   2.4332   2.8063   2.8063
     3.0060   3.0060   3.2772   3.2772   3.5832   3.5832   3.8269   3.8269
     4.1226   4.1226   6.0024   6.0024   6.3930   6.3930   6.9484   6.9484
     7.3038   7.3038

          k =-0.5081-0.2579 0.0000 ( 36480 PWs)   bands (ev):

   -44.1454 -44.1454 -22.2770 -22.2770 -22.2172 -22.2172 -22.0659 -22.0659
    -7.2575  -6.8854  -6.7533  -6.6422  -6.2135  -5.2446  -5.1070  -4.7378
    -4.6705  -4.4254   0.5553   0.6097   0.7006   1.2735   1.2916   1.5569
     1.6726   1.7670   2.0174   2.1178   2.2333   2.2849   2.3469   3.3392
     3.3647   3.3888   3.4866   3.5106   3.7395   3.8525   3.8889   4.0847
     4.5334   5.2262   5.4376   5.8648   6.0304   6.6573   6.6916   6.7955
     7.3466   7.5451

          k =-0.5081-0.2579 0.1485 ( 36485 PWs)   bands (ev):

   -44.1454 -44.1454 -22.2770 -22.2770 -22.2172 -22.2172 -22.0659 -22.0659
    -7.2239  -6.9876  -6.7084  -6.6494  -6.0979  -5.5036  -4.9245  -4.7053
    -4.6795  -4.4544   0.5120   0.7179   0.8095   1.0580   1.3068   1.4185
     1.5485   1.6440   2.0351   2.0746   2.3138   2.5734   2.8211   3.3210
     3.3569   3.3962   3.4927   3.5262   3.6420   3.7080   3.8311   4.1431
     4.3207   4.5605   6.0493   6.1086   6.2252   6.6634   6.6873   6.7132
     7.1893   7.4812

          k =-0.5081-0.2579-0.2971 ( 36478 PWs)   bands (ev):

   -44.1454 -44.1454 -22.2770 -22.2770 -22.2172 -22.2172 -22.0659 -22.0659
    -7.1275  -7.1275  -6.6709  -6.6709  -5.8278  -5.8278  -4.7906  -4.7906
    -4.5491  -4.5491   0.6064   0.6064   1.0743   1.0743   1.1718   1.1718
     1.4789   1.4789   2.0526   2.0526   2.7731   2.7731   3.1728   3.1728
     3.3705   3.3705   3.4380   3.4380   3.6889   3.6889   3.8131   3.8131
     4.2471   4.2471   6.2647   6.2647   6.6174   6.6174   6.7610   6.7610
     7.1061   7.1061

          k =-0.2541-0.1934 0.0000 ( 36410 PWs)   bands (ev):

   -44.1464 -44.1463 -22.2817 -22.2817 -22.1933 -22.1933 -22.0689 -22.0688
    -7.5842  -7.0627  -7.0600  -6.7678  -6.4139  -5.3246  -5.0571  -4.8474
    -4.7750  -3.9983   0.5254   0.9015   0.9221   1.2273   1.3650   1.4204
     1.9307   2.0130   2.1950   2.5060   2.5670   3.1336   3.3563   3.5984
     3.6351   3.7065   3.7628   3.8420   3.9024   4.1903   4.2132   4.2218
     4.4044   4.6395   5.7864   6.0037   6.3119   6.6001   6.6126   6.8406
     6.9958   7.0707

          k =-0.2541-0.1934 0.1485 ( 36427 PWs)   bands (ev):

   -44.1464 -44.1464 -22.2817 -22.2817 -22.1933 -22.1933 -22.0689 -22.0688
    -7.5465  -7.2646  -6.8964  -6.7782  -6.3071  -5.6364  -4.8895  -4.7922
    -4.6919  -4.0911   0.5606   0.9356   0.9906   1.0306   1.1839   1.5710
     1.8420   2.2986   2.4134   2.5144   2.5415   2.9158   3.2958   3.3518
     3.5720   3.6406   3.7403   3.8921   3.9724   4.0914   4.2153   4.2461
     4.6766   4.9617   5.7982   5.8774   6.1818   6.3301   6.5345   6.7030
     7.2053   7.2976

          k =-0.2541-0.1934-0.2971 ( 36422 PWs)   bands (ev):

   -44.1464 -44.1464 -22.2817 -22.2817 -22.1933 -22.1933 -22.0688 -22.0688
    -7.4364  -7.4364  -6.8136  -6.8136  -6.0185  -6.0185  -4.8342  -4.8342
    -4.3457  -4.3457   0.7081   0.7081   1.0559   1.0559   1.2562   1.2562
     2.2923   2.2923   2.5038   2.5038   2.6797   2.6797   3.1536   3.1536
     3.5501   3.5501   3.8077   3.8077   4.0463   4.0463   4.2439   4.2439
     5.1313   5.1313   5.7150   5.7150   6.1020   6.1020   6.5391   6.5391
     7.4101   7.4101

          k = 0.0000-0.1290 0.0000 ( 36417 PWs)   bands (ev):

   -44.1467 -44.1467 -22.2837 -22.2837 -22.1834 -22.1834 -22.0701 -22.0700
    -7.7032  -7.1668  -7.1428  -6.8093  -6.4697  -5.3646  -5.0558  -4.8872
    -4.8207  -3.8560   0.4324   0.7589   0.7645   1.0888   1.5325   1.5565
     2.4006   2.4271   2.6762   2.9088   2.9963   3.0206   3.1931   3.4555
     3.5463   3.6705   3.7973   4.0148   4.1609   4.2559   4.2753   4.6388
     5.0069   5.5012   5.6280   5.7027   5.8592   6.0460   6.3654   6.8012
     6.9498   7.2595

          k = 0.0000-0.1290 0.1485 ( 36419 PWs)   bands (ev):

   -44.1467 -44.1467 -22.2837 -22.2837 -22.1834 -22.1834 -22.0701 -22.0700
    -7.6646  -7.3727  -6.9643  -6.8211  -6.3712  -5.6915  -4.9045  -4.8342
    -4.6896  -3.9727   0.4816   0.7965   0.9228   1.0387   1.0791   1.9889
     2.1126   2.4286   2.6131   2.9372   2.9903   3.1308   3.3291   3.3687
     3.6675   3.7532   3.7890   3.9863   4.1065   4.2797   4.2930   4.6494
     4.8578   5.0302   5.7596   5.9513   6.0175   6.0441   6.6013   6.6744
     6.7795   7.2328

          k = 0.0000-0.1290-0.2971 ( 36464 PWs)   bands (ev):

   -44.1467 -44.1467 -22.2837 -22.2837 -22.1834 -22.1834 -22.0701 -22.0701
    -7.5513  -7.5513  -6.8628  -6.8628  -6.0861  -6.0861  -4.8665  -4.8665
    -4.2814  -4.2814   0.6825   0.6825   0.9020   0.9020   1.4169   1.4169
     2.5071   2.5071   2.6904   2.6904   2.9714   2.9714   3.3898   3.3898
     3.8129   3.8129   3.9425   3.9425   4.2417   4.2417   4.4240   4.4240
     4.7041   4.7041   5.9552   5.9552   6.2473   6.2473   6.3888   6.3888
     7.1100   7.1100

          k = 1.0162 0.0000 0.0000 ( 36499 PWs)   bands (ev):

   -44.1441 -44.1441 -22.2700 -22.2700 -22.2509 -22.2509 -22.0617 -22.0617
    -6.6968  -6.6768  -5.8487  -5.8390  -5.7690  -5.7587  -5.4502  -5.4492
    -4.5510  -4.5294   0.0398   0.0857   0.3824   0.4210   1.0027   1.0314
     1.4776   1.6535   2.2366   2.3500   2.3616   2.3842   2.7875   2.8066
     2.8661   2.8980   3.2361   3.2793   3.2921   3.4434   3.6263   3.6417
     3.7423   4.0109   6.4168   6.4684   6.4874   6.5905   6.9991   7.0424
     7.0490   7.0603

          k = 1.0162 0.0000 0.1485 ( 36485 PWs)   bands (ev):

   -44.1441 -44.1441 -22.2700 -22.2700 -22.2509 -22.2509 -22.0617 -22.0617
    -6.6931  -6.6789  -5.8637  -5.8560  -5.7553  -5.7493  -5.4426  -5.4416
    -4.5525  -4.5373  -0.0463  -0.0315   0.6150   0.6213   1.0317   1.0323
     1.4734   1.5787   1.9732   1.9846   2.3667   2.3773   2.6724   2.8058
     2.9799   3.0516   3.0775   3.2024   3.5273   3.6350   3.6876   3.6943
     4.0419   4.1463   5.8942   5.9404   6.4174   6.5019   6.9970   7.0115
     7.2764   7.2809

          k = 1.0162 0.0000-0.2971 ( 36514 PWs)   bands (ev):

   -44.1442 -44.1442 -22.2700 -22.2700 -22.2509 -22.2509 -22.0617 -22.0617
    -6.6853  -6.6853  -5.8727  -5.8727  -5.7439  -5.7439  -5.4345  -5.4345
    -4.5496  -4.5496  -0.1005  -0.1005   0.9139   0.9139   0.9593   0.9593
     1.5564   1.5564   1.6294   1.6294   2.3550   2.3550   2.7503   2.7503
     3.0617   3.0617   3.0860   3.0860   3.6242   3.6242   3.7735   3.7735
     4.4998   4.4998   5.3897   5.3897   6.3831   6.3831   7.0257   7.0257
     7.3429   7.3429

          k = 1.2703 0.0645 0.0000 ( 36468 PWs)   bands (ev):

   -44.1445 -44.1445 -22.2722 -22.2722 -22.2409 -22.2409 -22.0630 -22.0629
    -6.8386  -6.7349  -6.4038  -6.2871  -5.8732  -5.3340  -5.2492  -5.0739
    -4.6177  -4.5607   0.0243   0.1661   0.5708   1.0542   1.1487   1.2140
     1.5038   1.7083   1.9621   2.0284   2.3702   2.4317   2.4945   2.8280
     2.8377   3.1218   3.3076   3.4653   3.5371   3.5583   3.7353   3.8491
     3.8824   4.4429   5.8066   6.2139   6.3739   6.6285   6.8319   6.9906
     7.1686   7.5848

          k = 1.2703 0.0645 0.1485 ( 36490 PWs)   bands (ev):

   -44.1445 -44.1445 -22.2722 -22.2722 -22.2409 -22.2409 -22.0630 -22.0629
    -6.8220  -6.7475  -6.4013  -6.3303  -5.7813  -5.4253  -5.2038  -5.0935
    -4.6046  -4.5655   0.0678   0.3051   0.4682   0.9109   1.1214   1.1743
     1.5697   1.6384   1.7583   2.2594   2.3029   2.6054   2.7036   2.8419
     2.8989   3.1239   3.1837   3.3721   3.4306   3.5726   3.7396   3.8253
     3.8736   4.6454   5.4367   6.3362   6.5309   6.6542   6.7820   7.0004
     7.0574   7.4468

          k = 1.2703 0.0645-0.2971 ( 36480 PWs)   bands (ev):

   -44.1445 -44.1445 -22.2722 -22.2722 -22.2409 -22.2409 -22.0630 -22.0630
    -6.7829  -6.7829  -6.3824  -6.3824  -5.5990  -5.5990  -5.1432  -5.1432
    -4.5812  -4.5812   0.2306   0.2306   0.6569   0.6569   1.0296   1.0296
     1.5839   1.5839   2.0812   2.0812   2.4957   2.4957   2.8195   2.8195
     3.0096   3.0096   3.2048   3.2048   3.5855   3.5855   3.8192   3.8192
     4.1070   4.1070   5.9810   5.9810   6.3901   6.3901   6.9989   6.9989
     7.2622   7.2622

          k =-0.5081-0.3869 0.0000 ( 36463 PWs)   bands (ev):

   -44.1454 -44.1454 -22.2770 -22.2770 -22.2172 -22.2172 -22.0659 -22.0659
    -7.2429  -6.8833  -6.7509  -6.6560  -6.2242  -5.2430  -5.1151  -4.7421
    -4.6633  -4.4265   0.5621   0.5958   0.6942   1.2840   1.4217   1.5963
     1.6633   1.7584   2.0028   2.1587   2.2672   2.2847   2.3477   3.2442
     3.3688   3.4035   3.4175   3.5386   3.7009   3.8006   3.8272   4.0764
     4.5217   5.2207   5.4284   5.7762   6.0926   6.7103   6.7702   6.8101
     7.2611   7.5412

          k =-0.5081-0.3869 0.1485 ( 36477 PWs)   bands (ev):

   -44.1454 -44.1454 -22.2770 -22.2770 -22.2172 -22.2172 -22.0659 -22.0659
    -7.2096  -6.9776  -6.7182  -6.6642  -6.1029  -5.5024  -4.9366  -4.7036
    -4.6773  -4.4524   0.5147   0.7236   0.7973   1.0546   1.3894   1.4240
     1.5965   1.6869   2.0377   2.0757   2.3035   2.6174   2.8389   3.2085
     3.3637   3.3975   3.4365   3.5276   3.6478   3.6926   3.7762   4.1097
     4.2577   4.5626   5.9951   6.1216   6.2168   6.6032   6.7802   6.8340
     7.1108   7.4825

          k =-0.5081-0.3869-0.2971 ( 36492 PWs)   bands (ev):

   -44.1454 -44.1454 -22.2770 -22.2770 -22.2172 -22.2172 -22.0659 -22.0659
    -7.1142  -7.1142  -6.6862  -6.6862  -5.8277  -5.8277  -4.7998  -4.7998
    -4.5432  -4.5432   0.6146   0.6146   1.0731   1.0731   1.1540   1.1540
     1.5825   1.5825   2.0409   2.0409   2.8035   2.8035   3.1821   3.1821
     3.3186   3.3186   3.4030   3.4030   3.6818   3.6818   3.7970   3.7970
     4.1911   4.1911   6.2279   6.2279   6.6508   6.6508   6.7615   6.7615
     7.1210   7.1210

          k =-0.2541-0.3224 0.0000 ( 36485 PWs)   bands (ev):

   -44.1464 -44.1464 -22.2817 -22.2817 -22.1933 -22.1933 -22.0689 -22.0688
    -7.5700  -7.0577  -7.0519  -6.7829  -6.4360  -5.3243  -5.0680  -4.8526
    -4.7656  -3.9998   0.5516   0.9148   1.0468   1.2765   1.4165   1.4370
     1.9668   2.0459   2.1961   2.4279   2.5187   3.2482   3.2587   3.4163
     3.5847   3.6371   3.7370   3.8722   3.8761   4.1003   4.1690   4.1874
     4.3893   4.5946   5.8684   6.0228   6.3604   6.5693   6.6982   6.8595
     6.9288   7.0124

          k =-0.2541-0.3224 0.1485 ( 36445 PWs)   bands (ev):

   -44.1464 -44.1464 -22.2817 -22.2817 -22.1933 -22.1933 -22.0689 -22.0688
    -7.5325  -7.2526  -6.9025  -6.7936  -6.3208  -5.6365  -4.9108  -4.7879
    -4.6833  -4.0909   0.5812   0.9644   1.0223   1.1471   1.2610   1.5953
     1.8528   2.2988   2.4328   2.4430   2.5252   2.8945   3.3339   3.3636
     3.4054   3.5317   3.7126   3.8829   3.9120   4.0692   4.1315   4.1888
     4.6916   4.9301   5.7816   5.9064   6.1749   6.3370   6.6345   6.7264
     7.1559   7.2838

          k =-0.2541-0.3224-0.2971 ( 36442 PWs)   bands (ev):

   -44.1464 -44.1464 -22.2817 -22.2817 -22.1933 -22.1933 -22.0688 -22.0688
    -7.4229  -7.4229  -6.8280  -6.8280  -6.0221  -6.0221  -4.8422  -4.8422
    -4.3418  -4.3418   0.7207   0.7207   1.1832   1.1832   1.2682   1.2682
     2.2920   2.2920   2.4611   2.4611   2.6770   2.6770   3.2003   3.2003
     3.3864   3.3864   3.7927   3.7927   4.0214   4.0214   4.1711   4.1711
     5.1378   5.1378   5.6710   5.6710   6.0787   6.0787   6.6451   6.6451
     7.3786   7.3786

          k = 0.0000-0.2579 0.0000 ( 36445 PWs)   bands (ev):

   -44.1467 -44.1467 -22.2837 -22.2837 -22.1834 -22.1834 -22.0701 -22.0700
    -7.6908  -7.1647  -7.1302  -6.8239  -6.4929  -5.3651  -5.0662  -4.8945
    -4.8095  -3.8576   0.4746   0.7775   0.8727   1.1333   1.5816   1.5893
     2.4071   2.4300   2.6940   2.9054   2.9895   3.0489   3.2947   3.2960
     3.3342   3.6440   3.6861   3.9739   4.1184   4.1478   4.1609   4.6401
     4.9852   5.4417   5.6944   5.7204   5.8977   6.1139   6.4599   6.7298
     6.9508   7.2202

          k = 0.0000-0.2579 0.1485 ( 36452 PWs)   bands (ev):

   -44.1467 -44.1467 -22.2837 -22.2837 -22.1834 -22.1834 -22.0701 -22.0700
    -7.6522  -7.3619  -6.9670  -6.8354  -6.3869  -5.6925  -4.9259  -4.8286
    -4.6819  -3.9728   0.5161   0.9004   0.9615   1.0872   1.1113   2.0092
     2.1489   2.4357   2.6266   2.9350   2.9844   3.1328   3.2336   3.2750
     3.6309   3.6612   3.7301   3.9207   4.1016   4.1553   4.1785   4.6505
     4.8467   5.0146   5.7898   5.9613   6.0522   6.0779   6.5662   6.7314
     6.7816   7.1989

          k = 0.0000-0.2579-0.2971 ( 36454 PWs)   bands (ev):

   -44.1467 -44.1467 -22.2837 -22.2837 -22.1834 -22.1834 -22.0701 -22.0701
    -7.5393  -7.5393  -6.8749  -6.8749  -6.0913  -6.0913  -4.8735  -4.8735
    -4.2783  -4.2783   0.7152   0.7152   0.9905   0.9905   1.4383   1.4383
     2.5164   2.5164   2.7108   2.7108   2.9676   2.9676   3.2526   3.2526
     3.7710   3.7710   3.9274   3.9274   4.1033   4.1033   4.4145   4.4145
     4.7025   4.7025   5.9406   5.9406   6.2881   6.2881   6.3936   6.3936
     7.0972   7.0972

          k = 1.5243 0.0000 0.0000 ( 36439 PWs)   bands (ev):

   -44.1454 -44.1454 -22.2770 -22.2770 -22.2172 -22.2172 -22.0659 -22.0659
    -7.2366  -6.8829  -6.7500  -6.6614  -6.2288  -5.2423  -5.1184  -4.7434
    -4.6609  -4.4269   0.5666   0.5903   0.6883   1.2881   1.5377   1.5738
     1.6360   1.7542   2.0144   2.1783   2.2509   2.3032   2.3449   3.1950
     3.3496   3.3801   3.4301   3.6251   3.6834   3.6903   3.8197   4.0921
     4.5163   5.2159   5.4251   5.7399   6.1208   6.6741   6.8288   6.8575
     7.2141   7.5710

          k = 1.5243 0.0000 0.1485 ( 36476 PWs)   bands (ev):

   -44.1454 -44.1454 -22.2770 -22.2770 -22.2172 -22.2172 -22.0659 -22.0659
    -7.2033  -6.9734  -6.7226  -6.6703  -6.1050  -5.5019  -4.9414  -4.7033
    -4.6761  -4.4515   0.5161   0.7254   0.7913   1.0534   1.4129   1.4488
     1.6007   1.7156   2.0475   2.0714   2.2974   2.6273   2.8496   3.1598
     3.3219   3.4096   3.4206   3.5967   3.6363   3.6925   3.7069   4.1281
     4.2126   4.5635   5.9682   6.1312   6.2148   6.5741   6.8240   6.8990
     7.0622   7.4946

          k = 1.5243 0.0000-0.2971 ( 36508 PWs)   bands (ev):

   -44.1454 -44.1454 -22.2770 -22.2770 -22.2172 -22.2172 -22.0659 -22.0659
    -7.1083  -7.1083  -6.6929  -6.6929  -5.8276  -5.8276  -4.8035  -4.8035
    -4.5408  -4.5408   0.6178   0.6178   1.0724   1.0724   1.1479   1.1479
     1.6322   1.6322   2.0314   2.0314   2.8186   2.8186   3.1473   3.1473
     3.3206   3.3206   3.4041   3.4041   3.6737   3.6737   3.7902   3.7902
     4.1686   4.1686   6.2131   6.2131   6.6459   6.6459   6.7765   6.7765
     7.1328   7.1328

          k =-0.2541-0.4514 0.0000 ( 36444 PWs)   bands (ev):

   -44.1464 -44.1464 -22.2817 -22.2817 -22.1933 -22.1933 -22.0689 -22.0688
    -7.5596  -7.0560  -7.0449  -6.7924  -6.4527  -5.3240  -5.0760  -4.8539
    -4.7609  -4.0008   0.5607   0.9251   1.1617   1.3067   1.4118   1.5249
     2.0054   2.0717   2.1902   2.3396   2.4430   3.1816   3.2846   3.3490
     3.5841   3.5973   3.7517   3.7933   3.8744   4.0619   4.1420   4.1468
     4.4180   4.5462   5.9363   6.0322   6.3835   6.5420   6.7562   6.8527
     6.8722   6.9994

          k =-0.2541-0.4514 0.1485 ( 36461 PWs)   bands (ev):

   -44.1464 -44.1464 -22.2817 -22.2817 -22.1933 -22.1933 -22.0689 -22.0688
    -7.5222  -7.2439  -6.9079  -6.8041  -6.3306  -5.6365  -4.9241  -4.7862
    -4.6778  -4.0907   0.5874   0.9790   1.0326   1.2815   1.3322   1.6170
     1.8712   2.2892   2.3503   2.4281   2.5063   2.8833   3.2680   3.2848
     3.3978   3.5468   3.7463   3.8487   3.8638   3.9824   4.1265   4.1535
     4.7203   4.8960   5.7729   5.9291   6.1826   6.3022   6.7024   6.7423
     7.1305   7.2728

          k =-0.2541-0.4514-0.2971 ( 36490 PWs)   bands (ev):

   -44.1464 -44.1464 -22.2817 -22.2817 -22.1933 -22.1933 -22.0688 -22.0688
    -7.4129  -7.4129  -6.8388  -6.8388  -6.0246  -6.0246  -4.8478  -4.8478
    -4.3391  -4.3391   0.7236   0.7236   1.2747   1.2747   1.3079   1.3079
     2.2858   2.2858   2.4024   2.4024   2.6754   2.6754   3.2183   3.2183
     3.2871   3.2871   3.7986   3.7986   3.9905   3.9905   4.1329   4.1329
     5.1440   5.1440   5.6447   5.6447   6.0556   6.0556   6.7088   6.7088
     7.3591   7.3592

          k = 0.0000-0.3869 0.0000 ( 36477 PWs)   bands (ev):

   -44.1467 -44.1467 -22.2837 -22.2837 -22.1834 -22.1834 -22.0701 -22.0700
    -7.6777  -7.1626  -7.1180  -6.8369  -6.5178  -5.3655  -5.0774  -4.8969
    -4.8025  -3.8591   0.4981   0.7912   1.0288   1.1969   1.6051   1.6557
     2.4137   2.4317   2.7132   2.9019   2.9819   3.0394   3.0653   3.0948
     3.4382   3.6169   3.6915   3.9361   3.9580   4.0117   4.1607   4.6417
     4.9640   5.4085   5.7383   5.7689   5.9405   6.1541   6.5252   6.6305
     6.9516   7.1946

          k = 0.0000-0.3869 0.1485 ( 36452 PWs)   bands (ev):

   -44.1467 -44.1467 -22.2837 -22.2837 -22.1834 -22.1834 -22.0701 -22.0700
    -7.6393  -7.3508  -6.9711  -6.8490  -6.4029  -5.6932  -4.9440  -4.8255
    -4.6749  -3.9728   0.5311   0.9934   1.0054   1.1532   1.2052   2.0327
     2.1823   2.4430   2.6407   2.9331   2.9561   2.9779   3.0059   3.3126
     3.5986   3.6688   3.7066   3.9094   4.0153   4.0575   4.0964   4.6519
     4.8358   5.0082   5.8298   5.9718   6.0808   6.0837   6.5186   6.7657
     6.7837   7.1675

          k = 0.0000-0.3869-0.2971 ( 36454 PWs)   bands (ev):

   -44.1467 -44.1467 -22.2837 -22.2837 -22.1834 -22.1834 -22.0701 -22.0701
    -7.5267  -7.5267  -6.8877  -6.8877  -6.0962  -6.0962  -4.8805  -4.8805
    -4.2753  -4.2753   0.7229   0.7229   1.1325   1.1325   1.4613   1.4613
     2.5259   2.5259   2.6971   2.6971   2.9638   2.9638   3.0674   3.0674
     3.7911   3.7911   3.9120   3.9120   3.9882   3.9882   4.3996   4.3996
     4.7011   4.7011   5.9186   5.9186   6.3156   6.3156   6.3987   6.3987
     7.0715   7.0715

          k =-2.0325 0.0000 0.0000 ( 36452 PWs)   bands (ev):

   -44.1467 -44.1467 -22.2837 -22.2837 -22.1834 -22.1834 -22.0701 -22.0700
    -7.6721  -7.1617  -7.1131  -6.8416  -6.5288  -5.3656  -5.0821  -4.8969
    -4.8005  -3.8598   0.5027   0.7971   1.1422   1.1911   1.6144   1.6971
     2.4165   2.4318   2.7216   2.8954   2.9005   2.9615   2.9785   3.1205
     3.5430   3.6054   3.7096   3.8145   3.9499   3.9509   4.1606   4.6424
     4.9554   5.3990   5.7457   5.8025   5.9621   6.1663   6.5459   6.5798
     6.9519   7.1866

          k =-2.0325 0.0000 0.1485 ( 36456 PWs)   bands (ev):

   -44.1467 -44.1467 -22.2837 -22.2837 -22.1834 -22.1834 -22.0701 -22.0700
    -7.6337  -7.3461  -6.9732  -6.8544  -6.4096  -5.6935  -4.9510  -4.8247
    -4.6723  -3.9728   0.5327   1.0051   1.0381   1.1956   1.2701   2.0432
     2.1966   2.4461   2.6467   2.8406   2.8932   2.9325   2.9750   3.3627
     3.5782   3.6968   3.7093   3.8896   3.9528   4.0086   4.0941   4.6525
     4.8313   5.0072   5.8509   5.9763   6.0772   6.0923   6.4958   6.7743
     6.7846   7.1564

          k =-2.0325 0.0000-0.2971 ( 36460 PWs)   bands (ev):

   -44.1467 -44.1467 -22.2837 -22.2837 -22.1834 -22.1834 -22.0701 -22.0701
    -7.5213  -7.5213  -6.8932  -6.8932  -6.0982  -6.0982  -4.8835  -4.8835
    -4.2740  -4.2740   0.7223   0.7223   1.2083   1.2083   1.4718   1.4718
     2.5299   2.5299   2.6569   2.6569   2.9622   2.9622   3.0077   3.0077
     3.8092   3.8092   3.9056   3.9056   3.9402   3.9402   4.3939   4.3939
     4.7006   4.7006   5.9075   5.9075   6.3243   6.3243   6.4009   6.4009
     7.0592   7.0592

     the Fermi energy is     5.3887 ev

!    total energy              =   -4240.94753074 Ry

     total all-electron energy =   -150287.641225 Ry
     estimated scf accuracy    <          2.5E-11 Ry
     smearing contrib. (-TS)   =      -0.00001744 Ry
     internal energy E=F+TS    =   -4240.94751329 Ry

     The total energy is F=E-TS. E is the sum of the following terms:
     one-electron contribution =    -165.75976174 Ry
     hartree contribution      =     116.35589541 Ry
     xc contribution           =    -201.44650850 Ry
     ewald contribution        =    -222.58463575 Ry
     one-center paw contrib.   =   -3767.51250272 Ry

     convergence has been achieved in  16 iterations

     Forces acting on atoms (cartesian axes, Ry/au):

     atom    1 type  1   force =     0.00000000   -0.01184874    0.00000000
     atom    2 type  1   force =    -0.00000000    0.01184874    0.00000000
     atom    3 type  2   force =     0.00000000    0.00046428    0.00000000
     atom    4 type  2   force =     0.00000000   -0.00046428    0.00000000
     atom    5 type  2   force =     0.00000000    0.00248928    0.00049044
     atom    6 type  2   force =     0.00000000   -0.00248928   -0.00049044
     atom    7 type  2   force =     0.00000000    0.00248928   -0.00049044
     atom    8 type  2   force =     0.00000000   -0.00248928    0.00049044
     atom    9 type  2   force =    -0.00000000    0.01409418    0.01324914
     atom   10 type  2   force =     0.00000000   -0.01409418   -0.01324914
     atom   11 type  2   force =     0.00000000    0.01409418   -0.01324914
     atom   12 type  2   force =     0.00000000   -0.01409418    0.01324914

     Total force =     0.042470     Total SCF correction =     0.000005


     Computing stress (Cartesian axis) and pressure

          total   stress  (Ry/bohr**3)                   (kbar)     P=       -3.35
  -0.00001951  -0.00000000   0.00000000           -2.87       -0.00        0.00
  -0.00000000  -0.00002091   0.00000000           -0.00       -3.08        0.00
   0.00000000   0.00000000  -0.00002793            0.00        0.00       -4.11

 
     init_run     :     35.71s CPU     37.25s WALL (       1 calls)
     electrons    :   1612.67s CPU   1630.56s WALL (       1 calls)
     forces       :      6.84s CPU      7.07s WALL (       1 calls)
     stress       :     45.24s CPU     45.89s WALL (       1 calls)

     Called by init_run:
     wfcinit      :     30.70s CPU     31.01s WALL (       1 calls)
     potinit      :      1.49s CPU      1.53s WALL (       1 calls)
     hinit0       :      1.77s CPU      2.64s WALL (       1 calls)

     Called by electrons:
     c_bands      :   1313.41s CPU   1321.58s WALL (      17 calls)
     sum_band     :    268.60s CPU    274.27s WALL (      17 calls)
     v_of_rho     :      7.67s CPU      8.25s WALL (      17 calls)
     newd         :     16.72s CPU     20.43s WALL (      17 calls)
     PAW_pot      :      6.04s CPU      6.05s WALL (      17 calls)
     mix_rho      :      1.40s CPU      1.44s WALL (      17 calls)

     Called by c_bands:
     init_us_2    :     13.22s CPU     13.30s WALL (    2331 calls)
     cegterg      :   1240.54s CPU   1248.02s WALL (    1071 calls)

     Called by *egterg:
     cdiaghg      :     27.36s CPU     27.49s WALL (    7757 calls)
     h_psi        :   1070.80s CPU   1078.01s WALL (    7883 calls)
     s_psi        :     49.78s CPU     49.89s WALL (    7883 calls)
     g_psi        :      2.17s CPU      2.19s WALL (    6749 calls)

     Called by h_psi:
     h_psi:calbec :     41.84s CPU     41.96s WALL (    7883 calls)
     vloc_psi     :    975.48s CPU    982.35s WALL (    7883 calls)
     add_vuspsi   :     49.64s CPU     49.80s WALL (    7883 calls)

     General routines
     calbec       :     54.16s CPU     54.31s WALL (    9269 calls)
     fft          :      7.00s CPU      7.98s WALL (     245 calls)
     ffts         :      0.18s CPU      0.18s WALL (      34 calls)
     fftw         :    965.27s CPU    971.87s WALL (  400052 calls)
     interpolate  :      0.60s CPU      0.60s WALL (      17 calls)
 
     Parallel routines
     fft_scatt_xy :    266.78s CPU    268.57s WALL (  400331 calls)
     fft_scatt_yz :    159.18s CPU    160.68s WALL (  400331 calls)
 
     PWSCF        :  28m20.77s CPU  28m45.73s WALL

 
   This run was terminated on:  15:15: 8  19Nov2021            

=------------------------------------------------------------------------------=
   JOB DONE.
=------------------------------------------------------------------------------=
