
     Program PWSCF v.6.7MaX starts on 19Nov2021 at 14:46:27 

     This program is part of the open-source Quantum ESPRESSO suite
     for quantum simulation of materials; please cite
         "P. Giannozzi et al., J. Phys.:Condens. Matter 21 395502 (2009);
         "P. Giannozzi et al., J. Phys.:Condens. Matter 29 465901 (2017);
          URL http://www.quantum-espresso.org", 
     in publications or presentations arising from this work. More details at
     http://www.quantum-espresso.org/quote

     Parallel version (MPI), running on    10 processors

     MPI processes distributed on     1 nodes
     R & G space division:  proc/nbgrp/npool/nimage =      10
     Waiting for input...
     Reading input from standard input

     Current dimensions of program PWSCF are:
     Max number of different atomic species (ntypx) = 10
     Max number of k-points (npk) =  40000
     Max angular momentum in pseudopotentials (lmaxx) =  3
     file Zr.pbe-spn-kjpaw_psl.1.0.0.UPF: wavefunction(s)  4S 4P renormalized
     file Te.pbe-n-kjpaw_psl.1.0.0.UPF: wavefunction(s)  5S 5P renormalized

     Subspace diagonalization in iterative solution of the eigenvalue problem:
     a serial algorithm will be used

     Message from routine setup:
     using ibrav=0 with symmetry is DISCOURAGED, use correct ibrav instead
 
     Parallelization info
     --------------------
     sticks:   dense  smooth     PW     G-vecs:    dense   smooth      PW
     Min         734     293     87               115340    29174    4753
     Max         735     295     88               115345    29176    4760
     Sum        7345    2937    873              1153415   291749   47557
 


     bravais-lattice index     =            0
     lattice parameter (alat)  =      15.5510  a.u.
     unit-cell volume          =    3018.5011 (a.u.)^3
     number of atoms/cell      =           12
     number of atomic types    =            2
     number of electrons       =        84.00
     number of Kohn-Sham states=           50
     kinetic-energy cutoff     =      80.0000  Ry
     charge density cutoff     =     800.0000  Ry
     scf convergence threshold =      1.0E-10
     mixing beta               =       0.7000
     number of iterations used =            8  plain     mixing
     Exchange-correlation= SLA  PW   PBX  PBC
                           (   1   4   3   4   0   0   0)

     celldm(1)=  15.551040  celldm(2)=   0.000000  celldm(3)=   0.000000
     celldm(4)=   0.000000  celldm(5)=   0.000000  celldm(6)=   0.000000

     crystal axes: (cart. coord. in units of alat)
               a(1) = (   0.246007  -0.969268   0.000000 )  
               a(2) = (   0.246007   0.969268   0.000000 )  
               a(3) = (   0.000000   0.000000   1.683031 )  

     reciprocal axes: (cart. coord. in units 2 pi/alat)
               b(1) = (  2.032465 -0.515853  0.000000 )  
               b(2) = (  2.032465  0.515853  0.000000 )  
               b(3) = (  0.000000  0.000000  0.594166 )  


     PseudoPot. # 1 for Zr read from file:
     pseudo/Zr.pbe-spn-kjpaw_psl.1.0.0.UPF
     MD5 check sum: 02112c41713a0468aff2bb39ef194e36
     Pseudo is Projector augmented-wave + core cor, Zval = 12.0
     Generated using &quot;atomic&quot; code by A. Dal Corso  v.6.2.2
     Shape of augmentation charge: PSQ
     Using radial grid of 1225 points,  6 beta functions with: 
                l(1) =   0
                l(2) =   0
                l(3) =   1
                l(4) =   1
                l(5) =   2
                l(6) =   2
     Q(r) pseudized with 0 coefficients 


     PseudoPot. # 2 for Te read from file:
     pseudo/Te.pbe-n-kjpaw_psl.1.0.0.UPF
     MD5 check sum: 66247bff2bd9dbf220fbb0bf5ab56e9d
     Pseudo is Projector augmented-wave + core cor, Zval =  6.0
     Generated using &quot;atomic&quot; code by A. Dal Corso  v.6.3
     Shape of augmentation charge: PSQ
     Using radial grid of 1245 points,  6 beta functions with: 
                l(1) =   0
                l(2) =   0
                l(3) =   1
                l(4) =   1
                l(5) =   2
                l(6) =   2
     Q(r) pseudized with 0 coefficients 


     atomic species   valence    mass     pseudopotential
        Zr            12.00    91.22000     Zr( 1.00)
        Te             6.00   127.60000     Te( 1.00)

      8 Sym. Ops., with inversion, found ( 4 have fractional translation)



   Cartesian axes

     site n.     atom                  positions (alat units)
         1           Zr  tau(   1) = (   0.0000000   0.6085798   0.4207578  )
         2           Zr  tau(   2) = (   0.2460067   0.3606883   1.2622733  )
         3           Te  tau(   3) = (   0.2460067   0.3343081   0.4207578  )
         4           Te  tau(   4) = (   0.0000000   0.6349600   1.2622733  )
         5           Te  tau(   5) = (   0.2460067   0.8084727   0.2511398  )
         6           Te  tau(   6) = (   0.0000000   0.1607954   1.4318913  )
         7           Te  tau(   7) = (   0.2460067   0.8084727   0.5903757  )
         8           Te  tau(   8) = (   0.0000000   0.1607954   1.0926553  )
         9           Te  tau(   9) = (   0.0000000   0.4096848   0.7259145  )
        10           Te  tau(  10) = (   0.2460067   0.5595834   0.9571166  )
        11           Te  tau(  11) = (   0.0000000   0.4096848   0.1156011  )
        12           Te  tau(  12) = (   0.2460067   0.5595834   1.5674300  )

     number of k points=    63  Methfessel-Paxton smearing, width (Ry)=  0.0030
                       cart. coord. in units 2pi/alat
        k(    1) = (   0.0000000   0.0000000   0.0000000), wk =   0.0078125
        k(    2) = (   0.0000000   0.0000000   0.1485415), wk =   0.0156250
        k(    3) = (   0.0000000   0.0000000  -0.2970830), wk =   0.0078125
        k(    4) = (   0.2540581   0.0644816   0.0000000), wk =   0.0312500
        k(    5) = (   0.2540581   0.0644816   0.1485415), wk =   0.0625000
        k(    6) = (   0.2540581   0.0644816  -0.2970830), wk =   0.0312500
        k(    7) = (   0.5081162   0.1289633   0.0000000), wk =   0.0312500
        k(    8) = (   0.5081162   0.1289633   0.1485415), wk =   0.0625000
        k(    9) = (   0.5081162   0.1289633  -0.2970830), wk =   0.0312500
        k(   10) = (   0.7621743   0.1934449   0.0000000), wk =   0.0312500
        k(   11) = (   0.7621743   0.1934449   0.1485415), wk =   0.0625000
        k(   12) = (   0.7621743   0.1934449  -0.2970830), wk =   0.0312500
        k(   13) = (  -1.0162324  -0.2579266   0.0000000), wk =   0.0156250
        k(   14) = (  -1.0162324  -0.2579266   0.1485415), wk =   0.0312500
        k(   15) = (  -1.0162324  -0.2579266  -0.2970830), wk =   0.0156250
        k(   16) = (   0.5081162   0.0000000   0.0000000), wk =   0.0156250
        k(   17) = (   0.5081162   0.0000000   0.1485415), wk =   0.0312500
        k(   18) = (   0.5081162   0.0000000  -0.2970830), wk =   0.0156250
        k(   19) = (   0.7621743   0.0644816   0.0000000), wk =   0.0312500
        k(   20) = (   0.7621743   0.0644816   0.1485415), wk =   0.0625000
        k(   21) = (   0.7621743   0.0644816  -0.2970830), wk =   0.0312500
        k(   22) = (   1.0162324   0.1289633   0.0000000), wk =   0.0312500
        k(   23) = (   1.0162324   0.1289633   0.1485415), wk =   0.0625000
        k(   24) = (   1.0162324   0.1289633  -0.2970830), wk =   0.0312500
        k(   25) = (  -0.7621743  -0.3224082   0.0000000), wk =   0.0312500
        k(   26) = (  -0.7621743  -0.3224082   0.1485415), wk =   0.0625000
        k(   27) = (  -0.7621743  -0.3224082  -0.2970830), wk =   0.0312500
        k(   28) = (  -0.5081162  -0.2579266   0.0000000), wk =   0.0312500
        k(   29) = (  -0.5081162  -0.2579266   0.1485415), wk =   0.0625000
        k(   30) = (  -0.5081162  -0.2579266  -0.2970830), wk =   0.0312500
        k(   31) = (  -0.2540581  -0.1934449   0.0000000), wk =   0.0312500
        k(   32) = (  -0.2540581  -0.1934449   0.1485415), wk =   0.0625000
        k(   33) = (  -0.2540581  -0.1934449  -0.2970830), wk =   0.0312500
        k(   34) = (   0.0000000  -0.1289633   0.0000000), wk =   0.0156250
        k(   35) = (   0.0000000  -0.1289633   0.1485415), wk =   0.0312500
        k(   36) = (   0.0000000  -0.1289633  -0.2970830), wk =   0.0156250
        k(   37) = (   1.0162324   0.0000000   0.0000000), wk =   0.0156250
        k(   38) = (   1.0162324   0.0000000   0.1485415), wk =   0.0312500
        k(   39) = (   1.0162324   0.0000000  -0.2970830), wk =   0.0156250
        k(   40) = (   1.2702905   0.0644816   0.0000000), wk =   0.0312500
        k(   41) = (   1.2702905   0.0644816   0.1485415), wk =   0.0625000
        k(   42) = (   1.2702905   0.0644816  -0.2970830), wk =   0.0312500
        k(   43) = (  -0.5081162  -0.3868899   0.0000000), wk =   0.0312500
        k(   44) = (  -0.5081162  -0.3868899   0.1485415), wk =   0.0625000
        k(   45) = (  -0.5081162  -0.3868899  -0.2970830), wk =   0.0312500
        k(   46) = (  -0.2540581  -0.3224082   0.0000000), wk =   0.0312500
        k(   47) = (  -0.2540581  -0.3224082   0.1485415), wk =   0.0625000
        k(   48) = (  -0.2540581  -0.3224082  -0.2970830), wk =   0.0312500
        k(   49) = (   0.0000000  -0.2579266   0.0000000), wk =   0.0156250
        k(   50) = (   0.0000000  -0.2579266   0.1485415), wk =   0.0312500
        k(   51) = (   0.0000000  -0.2579266  -0.2970830), wk =   0.0156250
        k(   52) = (   1.5243485   0.0000000   0.0000000), wk =   0.0156250
        k(   53) = (   1.5243485   0.0000000   0.1485415), wk =   0.0312500
        k(   54) = (   1.5243485   0.0000000  -0.2970830), wk =   0.0156250
        k(   55) = (  -0.2540581  -0.4513715   0.0000000), wk =   0.0312500
        k(   56) = (  -0.2540581  -0.4513715   0.1485415), wk =   0.0625000
        k(   57) = (  -0.2540581  -0.4513715  -0.2970830), wk =   0.0312500
        k(   58) = (   0.0000000  -0.3868899   0.0000000), wk =   0.0156250
        k(   59) = (   0.0000000  -0.3868899   0.1485415), wk =   0.0312500
        k(   60) = (   0.0000000  -0.3868899  -0.2970830), wk =   0.0156250
        k(   61) = (  -2.0324647   0.0000000   0.0000000), wk =   0.0078125
        k(   62) = (  -2.0324647   0.0000000   0.1485415), wk =   0.0156250
        k(   63) = (  -2.0324647   0.0000000  -0.2970830), wk =   0.0078125

     Dense  grid:  1153415 G-vectors     FFT dimensions: ( 144, 144, 240)

     Smooth grid:   291749 G-vectors     FFT dimensions: (  90,  90, 150)

     Estimated max dynamical RAM per process >     657.19 MB

     Estimated total dynamical RAM >       6.42 GB

     Initial potential from superposition of free atoms

     starting charge   83.99353, renormalised to   84.00000
     Starting wfcs are   66 randomized atomic wfcs
     Checking if some PAW data can be deallocated... 

     total cpu time spent up to now is       40.1 secs

     Self-consistent Calculation

     iteration #  1     ecut=    80.00 Ry     beta= 0.70
     Davidson diagonalization with overlap
     ethr =  1.00E-02,  avg # of iterations =  2.0

     Threshold (ethr) on eigenvalues was too large:
     Diagonalizing with lowered threshold

     Davidson diagonalization with overlap
     ethr =  3.94E-04,  avg # of iterations =  4.0

     total cpu time spent up to now is      198.6 secs

     total energy              =   -4240.72783878 Ry
     estimated scf accuracy    <       0.42962657 Ry

     iteration #  2     ecut=    80.00 Ry     beta= 0.70
     Davidson diagonalization with overlap
     ethr =  5.11E-04,  avg # of iterations =  7.5

     total cpu time spent up to now is      308.8 secs

     total energy              =   -4240.63227501 Ry
     estimated scf accuracy    <       2.12506644 Ry

     iteration #  3     ecut=    80.00 Ry     beta= 0.70
     Davidson diagonalization with overlap
     ethr =  5.11E-04,  avg # of iterations =  5.3

     total cpu time spent up to now is      403.5 secs

     total energy              =   -4240.92957123 Ry
     estimated scf accuracy    <       0.01485003 Ry

     iteration #  4     ecut=    80.00 Ry     beta= 0.70
     Davidson diagonalization with overlap
     c_bands:  2 eigenvalues not converged
     c_bands:  1 eigenvalues not converged
     c_bands:  1 eigenvalues not converged
     c_bands:  1 eigenvalues not converged
     c_bands:  1 eigenvalues not converged
     c_bands:  1 eigenvalues not converged
     c_bands:  1 eigenvalues not converged
     c_bands:  1 eigenvalues not converged
     c_bands:  1 eigenvalues not converged
     c_bands:  1 eigenvalues not converged
     c_bands:  1 eigenvalues not converged
     c_bands:  1 eigenvalues not converged
     c_bands:  1 eigenvalues not converged
     c_bands:  1 eigenvalues not converged
     c_bands:  2 eigenvalues not converged
     ethr =  1.77E-05,  avg # of iterations = 16.4

     total cpu time spent up to now is      573.1 secs

     total energy              =   -4240.94446898 Ry
     estimated scf accuracy    <       0.08635424 Ry

     iteration #  5     ecut=    80.00 Ry     beta= 0.70
     Davidson diagonalization with overlap
     ethr =  1.77E-05,  avg # of iterations =  6.2

     total cpu time spent up to now is      660.8 secs

     total energy              =   -4240.94673891 Ry
     estimated scf accuracy    <       0.01753129 Ry

     iteration #  6     ecut=    80.00 Ry     beta= 0.70
     Davidson diagonalization with overlap
     ethr =  1.77E-05,  avg # of iterations =  3.1

     total cpu time spent up to now is      735.4 secs

     total energy              =   -4240.94812758 Ry
     estimated scf accuracy    <       0.00180633 Ry

     iteration #  7     ecut=    80.00 Ry     beta= 0.70
     Davidson diagonalization with overlap
     c_bands:  1 eigenvalues not converged
     c_bands:  1 eigenvalues not converged
     c_bands:  1 eigenvalues not converged
     c_bands:  1 eigenvalues not converged
     c_bands:  1 eigenvalues not converged
     c_bands:  1 eigenvalues not converged
     c_bands:  1 eigenvalues not converged
     c_bands:  1 eigenvalues not converged
     ethr =  2.15E-06,  avg # of iterations = 14.5

     total cpu time spent up to now is      866.9 secs

     total energy              =   -4240.94920212 Ry
     estimated scf accuracy    <       0.00237031 Ry

     iteration #  8     ecut=    80.00 Ry     beta= 0.70
     Davidson diagonalization with overlap
     ethr =  2.15E-06,  avg # of iterations =  2.6

     total cpu time spent up to now is      936.8 secs

     total energy              =   -4240.94923764 Ry
     estimated scf accuracy    <       0.00041899 Ry

     iteration #  9     ecut=    80.00 Ry     beta= 0.70
     Davidson diagonalization with overlap
     ethr =  4.99E-07,  avg # of iterations =  6.6

     total cpu time spent up to now is     1023.2 secs

     total energy              =   -4240.94934465 Ry
     estimated scf accuracy    <       0.00000648 Ry

     iteration # 10     ecut=    80.00 Ry     beta= 0.70
     Davidson diagonalization with overlap
     c_bands:  1 eigenvalues not converged
     ethr =  7.71E-09,  avg # of iterations = 10.0

     total cpu time spent up to now is     1148.9 secs

     total energy              =   -4240.94935610 Ry
     estimated scf accuracy    <       0.00001671 Ry

     iteration # 11     ecut=    80.00 Ry     beta= 0.70
     Davidson diagonalization with overlap
     ethr =  7.71E-09,  avg # of iterations =  4.3

     total cpu time spent up to now is     1233.0 secs

     total energy              =   -4240.94935859 Ry
     estimated scf accuracy    <       0.00000011 Ry

     iteration # 12     ecut=    80.00 Ry     beta= 0.70
     Davidson diagonalization with overlap
     ethr =  1.27E-10,  avg # of iterations =  9.3

     total cpu time spent up to now is     1358.3 secs

     total energy              =   -4240.94935875 Ry
     estimated scf accuracy    <       0.00000010 Ry

     iteration # 13     ecut=    80.00 Ry     beta= 0.70
     Davidson diagonalization with overlap
     ethr =  1.25E-10,  avg # of iterations =  2.2

     total cpu time spent up to now is     1428.1 secs

     total energy              =   -4240.94935876 Ry
     estimated scf accuracy    <          7.2E-09 Ry

     iteration # 14     ecut=    80.00 Ry     beta= 0.70
     Davidson diagonalization with overlap
     ethr =  8.60E-12,  avg # of iterations =  8.6

     total cpu time spent up to now is     1543.1 secs

     total energy              =   -4240.94935877 Ry
     estimated scf accuracy    <       0.00000001 Ry

     iteration # 15     ecut=    80.00 Ry     beta= 0.70
     Davidson diagonalization with overlap
     ethr =  8.60E-12,  avg # of iterations =  2.1

     total cpu time spent up to now is     1612.0 secs

     total energy              =   -4240.94935877 Ry
     estimated scf accuracy    <          2.8E-09 Ry

     iteration # 16     ecut=    80.00 Ry     beta= 0.70
     Davidson diagonalization with overlap
     ethr =  3.32E-12,  avg # of iterations =  5.0

     total cpu time spent up to now is     1686.3 secs

     total energy              =   -4240.94935877 Ry
     estimated scf accuracy    <          1.2E-10 Ry

     iteration # 17     ecut=    80.00 Ry     beta= 0.70
     Davidson diagonalization with overlap
     ethr =  1.46E-13,  avg # of iterations = 10.0

     total cpu time spent up to now is     1804.4 secs

     total energy              =   -4240.94935877 Ry
     estimated scf accuracy    <          6.4E-10 Ry

     iteration # 18     ecut=    80.00 Ry     beta= 0.70
     Davidson diagonalization with overlap
     ethr =  1.46E-13,  avg # of iterations =  2.0

     total cpu time spent up to now is     1867.0 secs

     total energy              =   -4240.94935877 Ry
     estimated scf accuracy    <          2.8E-10 Ry

     iteration # 19     ecut=    80.00 Ry     beta= 0.70
     Davidson diagonalization with overlap
     ethr =  1.46E-13,  avg # of iterations =  3.7

     total cpu time spent up to now is     1924.7 secs

     End of self-consistent calculation

          k = 0.0000 0.0000 0.0000 ( 36359 PWs)   bands (ev):

   -44.1433 -44.1433 -22.2783 -22.2783 -22.1797 -22.1797 -22.0679 -22.0678
    -7.7283  -7.2196  -7.1438  -6.8117  -6.4357  -5.3753  -5.0333  -4.8741
    -4.8210  -3.8533   0.3994   0.7263   0.7555   1.0885   1.5117   1.5315
     2.3850   2.4096   2.6817   2.8570   2.9888   3.0140   3.1710   3.4742
     3.6211   3.7007   3.9039   4.0547   4.1757   4.3154   4.3280   4.6437
     4.9848   5.5375   5.6105   5.7167   5.8404   5.9914   6.2905   6.8279
     6.9535   7.2781

          k = 0.0000 0.0000 0.1485 ( 36415 PWs)   bands (ev):

   -44.1433 -44.1433 -22.2783 -22.2783 -22.1797 -22.1797 -22.0679 -22.0678
    -7.6900  -7.4019  -6.9826  -6.8248  -6.3441  -5.6894  -4.8843  -4.8311
    -4.6879  -3.9705   0.4536   0.7635   0.9075   1.0375   1.0579   1.9690
     2.0914   2.4133   2.6065   2.9033   2.9805   3.1178   3.3712   3.3782
     3.6763   3.7784   3.8911   4.0510   4.1216   4.3349   4.3434   4.6528
     4.8459   5.0346   5.7604   5.9573   5.9913   6.0076   6.6181   6.6227
     6.7814   7.2384

          k = 0.0000 0.0000-0.2971 ( 36410 PWs)   bands (ev):

   -44.1433 -44.1433 -22.2783 -22.2783 -22.1797 -22.1797 -22.0679 -22.0679
    -7.5777  -7.5777  -6.8718  -6.8718  -6.0733  -6.0733  -4.8556  -4.8556
    -4.2798  -4.2798   0.6540   0.6540   0.8888   0.8888   1.3983   1.3983
     2.4937   2.4937   2.6743   2.6743   2.9537   2.9537   3.4306   3.4306
     3.8606   3.8606   3.9603   3.9603   4.3344   4.3344   4.4052   4.4052
     4.7023   4.7023   5.9564   5.9564   6.2234   6.2234   6.3903   6.3903
     7.0912   7.0912

          k = 0.2541 0.0645 0.0000 ( 36396 PWs)   bands (ev):

   -44.1429 -44.1429 -22.2764 -22.2763 -22.1895 -22.1895 -22.0667 -22.0666
    -7.6132  -7.1125  -7.0677  -6.7648  -6.3741  -5.3347  -5.0341  -4.8322
    -4.7783  -3.9967   0.4863   0.8585   0.8880   1.2070   1.3454   1.3995
     1.8989   1.9591   2.1730   2.5449   2.5817   3.0825   3.3963   3.6951
     3.7149   3.7475   3.7795   3.7877   4.0102   4.2227   4.2496   4.2523
     4.4760   4.6413   5.7487   5.9817   6.2520   6.5565   6.6188   6.8203
     7.0055   7.1521

          k = 0.2541 0.0645 0.1485 ( 36423 PWs)   bands (ev):

   -44.1430 -44.1429 -22.2764 -22.2763 -22.1895 -22.1895 -22.0667 -22.0666
    -7.5758  -7.2960  -6.9130  -6.7765  -6.2775  -5.6347  -4.8619  -4.7904
    -4.6951  -4.0905   0.5280   0.8978   0.9680   0.9796   1.1594   1.5385
     1.8288   2.2754   2.3663   2.5333   2.5564   2.9342   3.2931   3.3169
     3.6109   3.7177   3.8890   3.9103   4.0127   4.1172   4.2671   4.3064
     4.6850   4.9556   5.8194   5.8687   6.1967   6.2692   6.4543   6.7031
     7.2434   7.3078

          k = 0.2541 0.0645-0.2971 ( 36436 PWs)   bands (ev):

   -44.1430 -44.1430 -22.2764 -22.2764 -22.1895 -22.1895 -22.0666 -22.0666
    -7.4665  -7.4665  -6.8174  -6.8174  -6.0059  -6.0059  -4.8203  -4.8203
    -4.3472  -4.3472   0.6853   0.6853   0.9984   0.9984   1.2347   1.2347
     2.2793   2.2793   2.5005   2.5005   2.6774   2.6774   3.1369   3.1369
     3.6091   3.6091   3.8976   3.8976   4.0679   4.0679   4.3071   4.3071
     5.1117   5.1117   5.7593   5.7593   6.1123   6.1123   6.4508   6.4508
     7.4316   7.4317

          k = 0.5081 0.1290 0.0000 ( 36499 PWs)   bands (ev):

   -44.1420 -44.1420 -22.2716 -22.2716 -22.2133 -22.2133 -22.0638 -22.0637
    -7.2884  -6.8886  -6.8028  -6.6368  -6.1788  -5.2514  -5.0929  -4.7227
    -4.6729  -4.4278   0.5628   0.5909   0.6869   1.2105   1.2511   1.5022
     1.6778   1.7548   2.0636   2.0638   2.1661   2.2728   2.3530   3.3171
     3.4017   3.4669   3.4908   3.5874   3.7688   3.8864   3.9125   4.1620
     4.5190   5.1973   5.4695   5.9768   5.9892   6.5638   6.5777   6.8917
     7.4196   7.5659

          k = 0.5081 0.1290 0.1485 ( 36476 PWs)   bands (ev):

   -44.1420 -44.1420 -22.2716 -22.2716 -22.2133 -22.2133 -22.0638 -22.0637
    -7.2546  -7.0125  -6.7248  -6.6449  -6.0755  -5.5033  -4.9084  -4.7012
    -4.6758  -4.4594   0.5025   0.6988   0.8040   1.0537   1.2445   1.4169
     1.4800   1.6034   2.0272   2.0863   2.3265   2.5016   2.8016   3.3409
     3.4010   3.4225   3.5012   3.5819   3.6726   3.7514   3.8462   4.2206
     4.3545   4.5478   6.0779   6.1369   6.2534   6.5675   6.6201   6.7601
     7.2587   7.4948

          k = 0.5081 0.1290-0.2971 ( 36466 PWs)   bands (ev):

   -44.1420 -44.1420 -22.2716 -22.2716 -22.2133 -22.2133 -22.0637 -22.0637
    -7.1574  -7.1574  -6.6708  -6.6708  -5.8202  -5.8202  -4.7743  -4.7743
    -4.5562  -4.5562   0.5884   0.5884   1.0679   1.0679   1.1817   1.1817
     1.3890   1.3890   2.0574   2.0574   2.7408   2.7408   3.1365   3.1365
     3.3764   3.3764   3.5511   3.5511   3.7007   3.7007   3.8237   3.8237
     4.3043   4.3043   6.3170   6.3170   6.5453   6.5453   6.7996   6.7996
     7.1085   7.1085

          k = 0.7622 0.1934 0.0000 ( 36521 PWs)   bands (ev):

   -44.1411 -44.1411 -22.2668 -22.2668 -22.2370 -22.2370 -22.0608 -22.0608
    -6.8736  -6.7281  -6.3977  -6.3321  -5.8542  -5.3342  -5.2462  -5.0789
    -4.5999  -4.5645   0.0121   0.1669   0.6058   1.0804   1.1060   1.2499
     1.4772   1.5985   1.9349   2.0069   2.2639   2.4076   2.4353   2.7695
     2.8278   3.2614   3.3189   3.4006   3.6299   3.6867   3.7407   3.7835
     3.9124   4.5642   5.8163   6.2402   6.3097   6.7679   6.7816   6.8810
     7.2515   7.5913

          k = 0.7622 0.1934 0.1485 ( 36503 PWs)   bands (ev):

   -44.1411 -44.1411 -22.2668 -22.2668 -22.2370 -22.2370 -22.0608 -22.0608
    -6.8537  -6.7500  -6.3971  -6.3577  -5.7726  -5.4279  -5.1994  -5.0967
    -4.5902  -4.5660   0.0635   0.2939   0.4777   0.9427   1.0862   1.2150
     1.4921   1.6453   1.8063   2.0732   2.1356   2.6333   2.6922   2.8083
     2.8743   3.1182   3.2717   3.3883   3.5118   3.6204   3.6581   3.9180
     3.9805   4.6223   5.5252   6.2925   6.5963   6.6641   6.8261   6.9378
     7.0277   7.5222

          k = 0.7622 0.1934-0.2971 ( 36522 PWs)   bands (ev):

   -44.1411 -44.1411 -22.2668 -22.2668 -22.2370 -22.2370 -22.0608 -22.0608
    -6.8030  -6.8030  -6.3877  -6.3877  -5.5996  -5.5996  -5.1420  -5.1420
    -4.5742  -4.5742   0.2311   0.2311   0.6287   0.6287   1.0768   1.0768
     1.5713   1.5713   2.0026   2.0026   2.3676   2.3676   2.8031   2.8031
     2.9948   2.9948   3.3594   3.3594   3.5844   3.5844   3.8339   3.8339
     4.1396   4.1396   6.0519   6.0519   6.4052   6.4052   6.9080   6.9080
     7.3624   7.3624

          k =-1.0162-0.2579 0.0000 ( 36506 PWs)   bands (ev):

   -44.1408 -44.1407 -22.2647 -22.2647 -22.2469 -22.2469 -22.0596 -22.0596
    -6.6991  -6.6791  -5.8714  -5.8603  -5.7963  -5.7867  -5.4298  -5.4292
    -4.5428  -4.5205   0.0395   0.0641   0.3771   0.3977   1.0114   1.0205
     1.4667   1.6716   2.2338   2.3749   2.3810   2.3821   2.7892   2.8117
     2.8167   2.8839   3.2411   3.2626   3.3082   3.4541   3.5583   3.6867
     3.7718   4.0032   6.4478   6.4737   6.5096   6.5915   6.9763   7.0589
     7.0692   7.0776

          k =-1.0162-0.2579 0.1485 ( 36506 PWs)   bands (ev):

   -44.1408 -44.1408 -22.2647 -22.2647 -22.2469 -22.2469 -22.0596 -22.0596
    -6.6955  -6.6813  -5.8875  -5.8790  -5.7804  -5.7745  -5.4234  -5.4232
    -4.5439  -4.5282  -0.0545  -0.0466   0.6011   0.6074   1.0176   1.0397
     1.4639   1.5892   1.9483   2.0345   2.3755   2.3907   2.7280   2.7284
     2.9448   3.0010   3.1390   3.2025   3.5527   3.5677   3.6951   3.7453
     4.0557   4.1153   5.9260   5.9383   6.4343   6.5088   7.0046   7.0371
     7.2729   7.3077

          k =-1.0162-0.2579-0.2971 ( 36528 PWs)   bands (ev):

   -44.1408 -44.1408 -22.2647 -22.2647 -22.2469 -22.2469 -22.0596 -22.0596
    -6.6876  -6.6876  -5.8968  -5.8968  -5.7673  -5.7673  -5.4170  -5.4170
    -4.5405  -4.5405  -0.1128  -0.1128   0.9080   0.9080   0.9407   0.9407
     1.5503   1.5503   1.6497   1.6497   2.3755   2.3755   2.7756   2.7756
     2.9268   2.9268   3.1714   3.1714   3.6180   3.6180   3.7902   3.7902
     4.4737   4.4737   5.4173   5.4173   6.3940   6.3940   7.0440   7.0440
     7.3570   7.3570

          k = 0.5081 0.0000 0.0000 ( 36503 PWs)   bands (ev):

   -44.1420 -44.1420 -22.2716 -22.2716 -22.2133 -22.2133 -22.0638 -22.0637
    -7.2935  -6.8902  -6.8037  -6.6309  -6.1748  -5.2520  -5.0897  -4.7179
    -4.6789  -4.4274   0.5640   0.5971   0.6809   1.1821   1.2460   1.4805
     1.6801   1.7597   2.0501   2.0886   2.1233   2.2746   2.3491   3.3021
     3.4236   3.4375   3.5486   3.5984   3.7748   3.8721   3.9601   4.1991
     4.5211   5.1957   5.4753   5.9653   6.0154   6.5242   6.5267   6.9271
     7.4416   7.5765

          k = 0.5081 0.0000 0.1485 ( 36453 PWs)   bands (ev):

   -44.1420 -44.1420 -22.2716 -22.2716 -22.2133 -22.2133 -22.0638 -22.0637
    -7.2597  -7.0163  -6.7218  -6.6391  -6.0733  -5.5037  -4.9030  -4.7032
    -4.6758  -4.4603   0.5024   0.6939   0.8074   1.0555   1.2219   1.4279
     1.4429   1.5932   2.0229   2.0930   2.3366   2.4681   2.7956   3.3292
     3.4042   3.4550   3.4984   3.5903   3.6677   3.8162   3.8395   4.2573
     4.3687   4.5451   6.0748   6.1501   6.2658   6.5175   6.5840   6.7914
     7.2823   7.5012

          k = 0.5081 0.0000-0.2971 ( 36452 PWs)   bands (ev):

   -44.1420 -44.1420 -22.2716 -22.2716 -22.2133 -22.2133 -22.0637 -22.0637
    -7.1621  -7.1621  -6.6655  -6.6655  -5.8200  -5.8200  -4.7702  -4.7702
    -4.5590  -4.5590   0.5847   0.5847   1.0679   1.0679   1.1988   1.1988
     1.3462   1.3462   2.0585   2.0585   2.7318   2.7318   3.1197   3.1197
     3.3729   3.3729   3.5855   3.5855   3.7212   3.7212   3.8257   3.8257
     4.3268   4.3268   6.3328   6.3328   6.5097   6.5097   6.8158   6.8158
     7.1101   7.1101

          k = 0.7622 0.0645 0.0000 ( 36505 PWs)   bands (ev):

   -44.1411 -44.1411 -22.2668 -22.2668 -22.2370 -22.2370 -22.0608 -22.0608
    -6.8828  -6.7261  -6.3889  -6.3341  -5.8538  -5.3303  -5.2469  -5.0784
    -4.5919  -4.5736   0.0071   0.1779   0.6264   1.0937   1.1124   1.2642
     1.4373   1.5577   1.9099   2.0229   2.2495   2.3622   2.4172   2.7426
     2.8146   3.3146   3.3446   3.4181   3.6175   3.6473   3.7637   3.8265
     3.9302   4.6033   5.8142   6.2502   6.2820   6.7379   6.8385   6.8392
     7.2713   7.5996

          k = 0.7622 0.0645 0.1485 ( 36509 PWs)   bands (ev):

   -44.1411 -44.1411 -22.2668 -22.2668 -22.2370 -22.2370 -22.0608 -22.0608
    -6.8620  -6.7508  -6.3885  -6.3561  -5.7732  -5.4276  -5.1973  -5.0959
    -4.5847  -4.5725   0.0639   0.2983   0.4872   0.9566   1.0901   1.2305
     1.4568   1.6452   1.8322   2.0005   2.0654   2.6529   2.6751   2.7867
     2.8594   3.1199   3.3332   3.4017   3.4881   3.6320   3.6746   3.9370
     4.0198   4.6206   5.5514   6.2737   6.6039   6.6598   6.8421   6.9346
     7.0045   7.5410

          k = 0.7622 0.0645-0.2971 ( 36472 PWs)   bands (ev):

   -44.1411 -44.1411 -22.2668 -22.2668 -22.2370 -22.2370 -22.0608 -22.0608
    -6.8085  -6.8085  -6.3811  -6.3811  -5.6008  -5.6008  -5.1401  -5.1401
    -4.5745  -4.5745   0.2366   0.2366   0.6232   0.6232   1.1012   1.1012
     1.5648   1.5648   1.9541   1.9541   2.3360   2.3360   2.8013   2.8013
     2.9857   2.9857   3.4227   3.4227   3.5811   3.5811   3.8223   3.8223
     4.1622   4.1622   6.0767   6.0767   6.4064   6.4064   6.8744   6.8744
     7.3893   7.3893

          k = 1.0162 0.1290 0.0000 ( 36514 PWs)   bands (ev):

   -44.1408 -44.1408 -22.2647 -22.2647 -22.2469 -22.2469 -22.0596 -22.0596
    -6.6991  -6.6791  -5.8711  -5.8606  -5.7964  -5.7867  -5.4299  -5.4291
    -4.5428  -4.5205   0.0336   0.0701   0.3721   0.4029   1.0058   1.0275
     1.4721   1.6628   2.2352   2.3687   2.3705   2.3875   2.7876   2.8084
     2.8381   2.8886   3.2428   3.2561   3.3067   3.4453   3.5841   3.6729
     3.7534   4.0155   6.4403   6.4821   6.5047   6.5974   6.9908   7.0609
     7.0688   7.0713

          k = 1.0162 0.1290 0.1485 ( 36524 PWs)   bands (ev):

   -44.1408 -44.1408 -22.2647 -22.2647 -22.2469 -22.2469 -22.0596 -22.0596
    -6.6955  -6.6813  -5.8873  -5.8792  -5.7804  -5.7745  -5.4236  -5.4230
    -4.5439  -4.5282  -0.0566  -0.0448   0.6016   0.6075   1.0211   1.0369
     1.4687   1.5850   1.9589   2.0199   2.3714   2.3862   2.6827   2.7812
     2.9608   3.0145   3.1197   3.1992   3.5327   3.6050   3.6873   3.7292
     4.0400   4.1346   5.9166   5.9505   6.4314   6.5113   7.0111   7.0358
     7.2781   7.3029

          k = 1.0162 0.1290-0.2971 ( 36516 PWs)   bands (ev):

   -44.1408 -44.1408 -22.2647 -22.2647 -22.2469 -22.2469 -22.0596 -22.0596
    -6.6876  -6.6876  -5.8968  -5.8968  -5.7673  -5.7673  -5.4170  -5.4170
    -4.5405  -4.5405  -0.1129  -0.1129   0.9071   0.9071   0.9424   0.9424
     1.5506   1.5506   1.6508   1.6508   2.3658   2.3658   2.7599   2.7599
     2.9773   2.9773   3.1443   3.1443   3.6230   3.6230   3.7845   3.7845
     4.4741   4.4741   5.4194   5.4194   6.3935   6.3935   7.0460   7.0460
     7.3573   7.3573

          k =-0.7622-0.3224 0.0000 ( 36511 PWs)   bands (ev):

   -44.1411 -44.1411 -22.2668 -22.2668 -22.2370 -22.2370 -22.0608 -22.0608
    -6.8593  -6.7322  -6.4102  -6.3293  -5.8550  -5.3399  -5.2451  -5.0796
    -4.6065  -4.5564   0.0194   0.1518   0.5778   1.0513   1.1231   1.2316
     1.5003   1.6631   1.9865   1.9868   2.3094   2.4368   2.4610   2.8063
     2.8432   3.1898   3.2975   3.4139   3.5872   3.6594   3.7221   3.8222
     3.8728   4.4998   5.8193   6.2305   6.3540   6.6997   6.8138   6.9476
     7.2160   7.5838

          k =-0.7622-0.3224 0.1485 ( 36492 PWs)   bands (ev):

   -44.1411 -44.1411 -22.2668 -22.2668 -22.2370 -22.2370 -22.0608 -22.0608
    -6.8408  -6.7497  -6.4093  -6.3602  -5.7717  -5.4285  -5.2023  -5.0980
    -4.5946  -4.5603   0.0621   0.2893   0.4634   0.9223   1.0918   1.1936
     1.5351   1.6429   1.7865   2.1793   2.2282   2.6158   2.7014   2.8333
     2.8904   3.1376   3.1927   3.3742   3.4790   3.6183   3.6658   3.8835
     3.9214   4.6232   5.4902   6.3229   6.5720   6.6672   6.8044   6.9726
     7.0545   7.4880

          k =-0.7622-0.3224-0.2971 ( 36508 PWs)   bands (ev):

   -44.1411 -44.1411 -22.2668 -22.2668 -22.2370 -22.2370 -22.0608 -22.0608
    -6.7949  -6.7949  -6.3974  -6.3974  -5.5980  -5.5980  -5.1448  -5.1448
    -4.5737  -4.5737   0.2233   0.2233   0.6362   0.6362   1.0486   1.0486
     1.5788   1.5788   2.0570   2.0570   2.4318   2.4318   2.8075   2.8075
     3.0074   3.0074   3.2703   3.2703   3.5855   3.5855   3.8376   3.8376
     4.1128   4.1128   6.0194   6.0194   6.4022   6.4022   6.9643   6.9643
     7.3165   7.3165

          k =-0.5081-0.2579 0.0000 ( 36480 PWs)   bands (ev):

   -44.1420 -44.1420 -22.2716 -22.2716 -22.2133 -22.2133 -22.0638 -22.0637
    -7.2753  -6.8856  -6.8006  -6.6506  -6.1888  -5.2500  -5.1007  -4.7301
    -4.6627  -4.4289   0.5641   0.5764   0.6925   1.2625   1.2943   1.5543
     1.6770   1.7455   2.0338   2.0994   2.2232   2.2730   2.3591   3.3518
     3.3703   3.4009   3.5008   3.5181   3.7409   3.8390   3.8980   4.0873
     4.5103   5.1988   5.4579   5.8884   6.0450   6.6631   6.6981   6.8071
     7.3566   7.5430

          k =-0.5081-0.2579 0.1485 ( 36485 PWs)   bands (ev):

   -44.1420 -44.1420 -22.2716 -22.2716 -22.2133 -22.2133 -22.0638 -22.0637
    -7.2418  -7.0032  -6.7327  -6.6588  -6.0809  -5.5024  -4.9207  -4.6977
    -4.6749  -4.4573   0.5032   0.7077   0.7950   1.0496   1.3065   1.4142
     1.5476   1.6339   2.0321   2.0768   2.3140   2.5644   2.8160   3.3243
     3.3693   3.4070   3.5038   3.5338   3.6392   3.7075   3.8330   4.1445
     4.3120   4.5523   6.0629   6.1208   6.2318   6.6696   6.6953   6.7203
     7.1969   7.4825

          k =-0.5081-0.2579-0.2971 ( 36478 PWs)   bands (ev):

   -44.1420 -44.1420 -22.2716 -22.2716 -22.2133 -22.2133 -22.0637 -22.0637
    -7.1455  -7.1455  -6.6842  -6.6842  -5.8206  -5.8206  -4.7838  -4.7838
    -4.5498  -4.5498   0.5968   0.5968   1.0674   1.0674   1.1558   1.1558
     1.4850   1.4850   2.0521   2.0521   2.7658   2.7658   3.1738   3.1738
     3.3753   3.3753   3.4471   3.4471   3.6876   3.6876   3.8126   3.8126
     4.2494   4.2494   6.2792   6.2792   6.6211   6.6211   6.7661   6.7661
     7.1111   7.1111

          k =-0.2541-0.1934 0.0000 ( 36410 PWs)   bands (ev):

   -44.1429 -44.1429 -22.2764 -22.2763 -22.1895 -22.1895 -22.0667 -22.0666
    -7.6041  -7.1109  -7.0602  -6.7755  -6.3885  -5.3347  -5.0415  -4.8400
    -4.7677  -3.9977   0.5142   0.8965   0.9301   1.2342   1.3782   1.3983
     1.9227   1.9803   2.1753   2.5111   2.5680   3.1487   3.3430   3.6099
     3.6440   3.7115   3.7613   3.8507   3.8925   4.2033   4.2096   4.2322
     4.4036   4.6290   5.8011   6.0034   6.3072   6.6009   6.6155   6.8332
     6.9945   7.0733

          k =-0.2541-0.1934 0.1485 ( 36427 PWs)   bands (ev):

   -44.1430 -44.1429 -22.2764 -22.2763 -22.1895 -22.1895 -22.0667 -22.0666
    -7.5668  -7.2887  -6.9154  -6.7870  -6.2874  -5.6352  -4.8801  -4.7846
    -4.6884  -4.0904   0.5522   0.9397   0.9839   1.0307   1.1901   1.5543
     1.8328   2.2780   2.3895   2.5158   2.5415   2.9180   3.3064   3.3574
     3.5815   3.6370   3.7474   3.8933   3.9737   4.0975   4.2265   4.2530
     4.6756   4.9428   5.8025   5.8902   6.1794   6.3314   6.5275   6.7088
     7.2013   7.2985

          k =-0.2541-0.1934-0.2971 ( 36422 PWs)   bands (ev):

   -44.1429 -44.1429 -22.2764 -22.2764 -22.1895 -22.1895 -22.0666 -22.0666
    -7.4579  -7.4579  -6.8261  -6.8261  -6.0092  -6.0092  -4.8258  -4.8258
    -4.3444  -4.3444   0.7036   0.7036   1.0626   1.0626   1.2432   1.2432
     2.2794   2.2794   2.4885   2.4885   2.6769   2.6769   3.1622   3.1622
     3.5603   3.5603   3.8095   3.8095   4.0538   4.0538   4.2519   4.2519
     5.1159   5.1159   5.7190   5.7190   6.1116   6.1116   6.5353   6.5353
     7.4076   7.4077

          k = 0.0000-0.1290 0.0000 ( 36417 PWs)   bands (ev):

   -44.1433 -44.1433 -22.2783 -22.2783 -22.1797 -22.1797 -22.0679 -22.0678
    -7.7235  -7.2188  -7.1388  -6.8175  -6.4447  -5.3757  -5.0374  -4.8800
    -4.8137  -3.8539   0.4212   0.7606   0.7679   1.0959   1.5376   1.5424
     2.3873   2.4107   2.6888   2.8557   2.9867   3.0205   3.2088   3.4504
     3.5620   3.6898   3.8036   4.0143   4.1757   4.2629   4.2780   4.6440
     4.9754   5.4971   5.6359   5.7241   5.8567   6.0374   6.3412   6.8085
     6.9539   7.2550

          k = 0.0000-0.1290 0.1485 ( 36419 PWs)   bands (ev):

   -44.1433 -44.1433 -22.2783 -22.2783 -22.1797 -22.1797 -22.0679 -22.0678
    -7.6852  -7.3980  -6.9830  -6.8304  -6.3506  -5.6900  -4.8951  -4.8269
    -4.6845  -3.9705   0.4732   0.8054   0.9200   1.0363   1.0807   1.9763
     2.1074   2.4159   2.6114   2.9030   2.9788   3.1337   3.3374   3.3772
     3.6693   3.7687   3.7967   3.9872   4.1196   4.2859   4.2964   4.6530
     4.8408   5.0235   5.7704   5.9616   6.0092   6.0357   6.6066   6.6544
     6.7823   7.2243

          k = 0.0000-0.1290-0.2971 ( 36464 PWs)   bands (ev):

   -44.1433 -44.1433 -22.2783 -22.2783 -22.1797 -22.1797 -22.0678 -22.0678
    -7.5732  -7.5732  -6.8761  -6.8761  -6.0758  -6.0758  -4.8584  -4.8584
    -4.2786  -4.2786   0.6771   0.6771   0.9102   0.9102   1.4066   1.4066
     2.4970   2.4970   2.6849   2.6849   2.9529   2.9529   3.4064   3.4064
     3.8167   3.8167   3.9539   3.9539   4.2441   4.2441   4.4204   4.4204
     4.7013   4.7013   5.9560   5.9560   6.2448   6.2448   6.3923   6.3923
     7.0920   7.0920

          k = 1.0162 0.0000 0.0000 ( 36499 PWs)   bands (ev):

   -44.1408 -44.1407 -22.2647 -22.2647 -22.2469 -22.2469 -22.0596 -22.0596
    -6.6991  -6.6791  -5.8707  -5.8610  -5.7964  -5.7866  -5.4300  -5.4290
    -4.5428  -4.5205   0.0292   0.0746   0.3685   0.4067   1.0028   1.0319
     1.4782   1.6533   2.2364   2.3577   2.3681   2.3909   2.7862   2.8049
     2.8552   2.8962   3.2397   3.2741   3.2875   3.4327   3.6194   3.6610
     3.7268   4.0268   6.4350   6.4881   6.5003   6.6028   7.0108   7.0545
     7.0627   7.0734

          k = 1.0162 0.0000 0.1485 ( 36485 PWs)   bands (ev):

   -44.1408 -44.1407 -22.2647 -22.2647 -22.2469 -22.2469 -22.0596 -22.0596
    -6.6955  -6.6813  -5.8871  -5.8794  -5.7804  -5.7745  -5.4237  -5.4228
    -4.5439  -4.5282  -0.0583  -0.0436   0.6022   0.6076   1.0289   1.0297
     1.4740   1.5803   1.9842   1.9905   2.3701   2.3791   2.6679   2.7996
     2.9808   3.0556   3.0718   3.1966   3.5261   3.6347   3.6837   3.7032
     4.0295   4.1488   5.9118   5.9581   6.4287   6.5137   7.0195   7.0326
     7.2882   7.2931

          k = 1.0162 0.0000-0.2971 ( 36514 PWs)   bands (ev):

   -44.1408 -44.1408 -22.2647 -22.2647 -22.2469 -22.2469 -22.0596 -22.0596
    -6.6876  -6.6876  -5.8968  -5.8968  -5.7673  -5.7673  -5.4170  -5.4170
    -4.5405  -4.5405  -0.1131  -0.1131   0.9062   0.9062   0.9440   0.9440
     1.5509   1.5509   1.6518   1.6518   2.3564   2.3564   2.7488   2.7488
     3.0572   3.0572   3.0826   3.0826   3.6283   3.6283   3.7786   3.7786
     4.4745   4.4745   5.4215   5.4215   6.3930   6.3930   7.0480   7.0480
     7.3576   7.3576

          k = 1.2703 0.0645 0.0000 ( 36468 PWs)   bands (ev):

   -44.1411 -44.1411 -22.2668 -22.2668 -22.2370 -22.2370 -22.0608 -22.0608
    -6.8478  -6.7364  -6.4191  -6.3273  -5.8555  -5.3439  -5.2443  -5.0802
    -4.6098  -4.5520   0.0246   0.1413   0.5587   1.0377   1.1351   1.2189
     1.5048   1.7092   1.9733   2.0374   2.3559   2.4327   2.4797   2.8338
     2.8489   3.1288   3.3156   3.4706   3.5348   3.5608   3.7221   3.8311
     3.8947   4.4437   5.8215   6.2281   6.3882   6.6410   6.8494   7.0045
     7.1805   7.5875

          k = 1.2703 0.0645 0.1485 ( 36490 PWs)   bands (ev):

   -44.1411 -44.1411 -22.2668 -22.2668 -22.2370 -22.2370 -22.0608 -22.0608
    -6.8305  -6.7504  -6.4181  -6.3621  -5.7711  -5.4289  -5.2043  -5.0990
    -4.5969  -4.5572   0.0605   0.2872   0.4527   0.9088   1.1007   1.1783
     1.5648   1.6378   1.7784   2.2567   2.2990   2.6016   2.7029   2.8451
     2.9027   3.1292   3.1759   3.3711   3.4339   3.5701   3.7445   3.8233
     3.8853   4.6229   5.4670   6.3493   6.5421   6.6685   6.7960   7.0126
     7.0695   7.4579

          k = 1.2703 0.0645-0.2971 ( 36480 PWs)   bands (ev):

   -44.1411 -44.1411 -22.2668 -22.2668 -22.2370 -22.2370 -22.0608 -22.0608
    -6.7889  -6.7889  -6.4045  -6.4045  -5.5968  -5.5968  -5.1467  -5.1467
    -4.5734  -4.5734   0.2177   0.2177   0.6414   0.6414   1.0319   1.0319
     1.5840   1.5840   2.0844   2.0844   2.4939   2.4939   2.8182   2.8182
     3.0132   3.0132   3.1988   3.1988   3.5865   3.5865   3.8304   3.8304
     4.0991   4.0991   5.9979   5.9979   6.3995   6.3995   7.0142   7.0142
     7.2748   7.2748

          k =-0.5081-0.3869 0.0000 ( 36463 PWs)   bands (ev):

   -44.1420 -44.1420 -22.2716 -22.2716 -22.2133 -22.2133 -22.0638 -22.0637
    -7.2614  -6.8837  -6.7983  -6.6636  -6.1992  -5.2486  -5.1086  -4.7346
    -4.6553  -4.4300   0.5627   0.5708   0.6866   1.2730   1.4197   1.5944
     1.6677   1.7384   2.0203   2.1398   2.2519   2.2779   2.3589   3.2507
     3.3788   3.4143   3.4303   3.5540   3.7015   3.8102   3.8126   4.0798
     4.4985   5.1954   5.4487   5.7986   6.1080   6.7219   6.7757   6.8175
     7.2723   7.5369

          k =-0.5081-0.3869 0.1485 ( 36477 PWs)   bands (ev):

   -44.1420 -44.1420 -22.2716 -22.2716 -22.2133 -22.2133 -22.0638 -22.0637
    -7.2282  -6.9937  -6.7418  -6.6727  -6.0863  -5.5014  -4.9324  -4.6959
    -4.6731  -4.4552   0.5046   0.7144   0.7835   1.0461   1.3821   1.4175
     1.5980   1.6861   2.0324   2.0755   2.3046   2.6073   2.8328   3.2131
     3.3732   3.4085   3.4476   3.5375   3.6417   3.6959   3.7800   4.1111
     4.2495   4.5559   6.0090   6.1358   6.2213   6.6125   6.7843   6.8420
     7.1190   7.4829

          k =-0.5081-0.3869-0.2971 ( 36492 PWs)   bands (ev):

   -44.1420 -44.1420 -22.2716 -22.2716 -22.2133 -22.2133 -22.0637 -22.0637
    -7.1328  -7.1328  -6.6985  -6.6985  -5.8209  -5.8209  -4.7929  -4.7929
    -4.5438  -4.5438   0.6046   0.6046   1.0663   1.0663   1.1382   1.1382
     1.5899   1.5899   2.0388   2.0388   2.7969   2.7969   3.1760   3.1760
     3.3275   3.3275   3.4118   3.4118   3.6831   3.6831   3.7964   3.7964
     4.1950   4.1950   6.2427   6.2427   6.6551   6.6551   6.7650   6.7650
     7.1271   7.1271

          k =-0.2541-0.3224 0.0000 ( 36485 PWs)   bands (ev):

   -44.1430 -44.1430 -22.2764 -22.2763 -22.1895 -22.1895 -22.0667 -22.0666
    -7.5907  -7.1087  -7.0500  -6.7896  -6.4101  -5.3348  -5.0525  -4.8451
    -4.7580  -3.9992   0.5403   0.9095   1.0542   1.2832   1.3938   1.4500
     1.9591   2.0137   2.1761   2.4338   2.5208   3.2568   3.2621   3.4292
     3.5949   3.6272   3.7390   3.8628   3.8822   4.1090   4.1645   4.1988
     4.3832   4.5915   5.8840   6.0236   6.3580   6.5747   6.7010   6.8507
     6.9261   7.0131

          k =-0.2541-0.3224 0.1485 ( 36445 PWs)   bands (ev):

   -44.1430 -44.1429 -22.2764 -22.2764 -22.1895 -22.1895 -22.0667 -22.0666
    -7.5536  -7.2780  -6.9199  -6.8012  -6.3014  -5.6357  -4.9013  -4.7801
    -4.6799  -4.0902   0.5732   0.9641   1.0138   1.1508   1.2671   1.5783
     1.8445   2.2796   2.4168   2.4433   2.5192   2.8968   3.3460   3.3718
     3.4190   3.5351   3.7032   3.8831   3.9117   4.0702   4.1426   4.1994
     4.6929   4.9122   5.7863   5.9201   6.1732   6.3430   6.6270   6.7288
     7.1533   7.2837

          k =-0.2541-0.3224-0.2971 ( 36442 PWs)   bands (ev):

   -44.1430 -44.1430 -22.2764 -22.2764 -22.1895 -22.1895 -22.0666 -22.0666
    -7.4453  -7.4453  -6.8390  -6.8390  -6.0136  -6.0136  -4.8336  -4.8336
    -4.3407  -4.3407   0.7167   0.7167   1.1887   1.1887   1.2548   1.2548
     2.2808   2.2808   2.4492   2.4492   2.6721   2.6721   3.2061   3.2061
     3.3993   3.3993   3.7928   3.7928   4.0246   4.0246   4.1810   4.1810
     5.1243   5.1243   5.6750   5.6750   6.0898   6.0898   6.6405   6.6405
     7.3774   7.3774

          k = 0.0000-0.2579 0.0000 ( 36445 PWs)   bands (ev):

   -44.1433 -44.1433 -22.2783 -22.2783 -22.1797 -22.1797 -22.0679 -22.0678
    -7.7116  -7.2168  -7.1268  -6.8310  -6.4674  -5.3767  -5.0480  -4.8872
    -4.8022  -3.8555   0.4625   0.7733   0.8812   1.1411   1.5676   1.5950
     2.3931   2.4138   2.7066   2.8525   2.9813   3.0477   3.3032   3.3107
     3.3517   3.6632   3.6768   3.9708   4.1263   4.1496   4.1758   4.6449
     4.9529   5.4397   5.7014   5.7419   5.8970   6.1067   6.4345   6.7410
     6.9548   7.2137

          k = 0.0000-0.2579 0.1485 ( 36452 PWs)   bands (ev):

   -44.1433 -44.1433 -22.2783 -22.2783 -22.1797 -22.1797 -22.0679 -22.0678
    -7.6735  -7.3884  -6.9844  -6.8436  -6.3666  -5.6914  -4.9164  -4.8211
    -4.6770  -3.9706   0.5075   0.9081   0.9558   1.0850   1.1160   1.9958
     2.1443   2.4223   2.6233   2.9028   2.9743   3.1353   3.2462   3.2931
     3.6291   3.6590   3.7453   3.9191   4.1144   4.1608   4.1813   4.6537
     4.8288   5.0089   5.8015   5.9721   6.0456   6.0736   6.5728   6.7076
     6.7844   7.1901

          k = 0.0000-0.2579-0.2971 ( 36454 PWs)   bands (ev):

   -44.1433 -44.1433 -22.2783 -22.2783 -22.1797 -22.1797 -22.0678 -22.0678
    -7.5620  -7.5620  -6.8867  -6.8867  -6.0817  -6.0817  -4.8652  -4.8652
    -4.2757  -4.2757   0.7099   0.7099   0.9983   0.9983   1.4275   1.4275
     2.5052   2.5052   2.7061   2.7061   2.9509   2.9509   3.2716   3.2716
     3.7714   3.7714   3.9383   3.9383   4.1057   4.1057   4.4101   4.4101
     4.6991   4.6991   5.9455   5.9455   6.2851   6.2851   6.3973   6.3973
     7.0786   7.0786

          k = 1.5243 0.0000 0.0000 ( 36439 PWs)   bands (ev):

   -44.1420 -44.1420 -22.2716 -22.2716 -22.2133 -22.2133 -22.0638 -22.0637
    -7.2554  -6.8835  -6.7974  -6.6686  -6.2036  -5.2480  -5.1118  -4.7359
    -4.6527  -4.4304   0.5572   0.5756   0.6807   1.2772   1.5239   1.5797
     1.6418   1.7360   2.0320   2.1588   2.2488   2.2827   2.3561   3.2023
     3.3611   3.3901   3.4424   3.6441   3.6896   3.6913   3.8043   4.0959
     4.4931   5.1918   5.4454   5.7617   6.1366   6.6857   6.8332   6.8664
     7.2254   7.5673

          k = 1.5243 0.0000 0.1485 ( 36476 PWs)   bands (ev):

   -44.1420 -44.1420 -22.2716 -22.2716 -22.2133 -22.2133 -22.0638 -22.0637
    -7.2222  -6.9897  -6.7460  -6.6784  -6.0885  -5.5010  -4.9371  -4.6955
    -4.6721  -4.4543   0.5054   0.7171   0.7775   1.0448   1.4097   1.4302
     1.6101   1.7164   2.0414   2.0686   2.3001   2.6165   2.8427   3.1654
     3.3319   3.4198   3.4314   3.6027   3.6404   3.6924   3.7089   4.1319
     4.2025   4.5573   5.9821   6.1460   6.2188   6.5832   6.8277   6.9076
     7.0705   7.4946

          k = 1.5243 0.0000-0.2971 ( 36508 PWs)   bands (ev):

   -44.1420 -44.1420 -22.2716 -22.2716 -22.2133 -22.2133 -22.0637 -22.0637
    -7.1273  -7.1273  -6.7047  -6.7047  -5.8210  -5.8210  -4.7966  -4.7966
    -4.5415  -4.5415   0.6076   0.6076   1.0657   1.0657   1.1320   1.1320
     1.6405   1.6405   2.0282   2.0282   2.8128   2.8128   3.1417   3.1417
     3.3277   3.3277   3.4116   3.4116   3.6775   3.6775   3.7889   3.7889
     4.1733   4.1733   6.2280   6.2280   6.6502   6.6502   6.7793   6.7793
     7.1396   7.1396

          k =-0.2541-0.4514 0.0000 ( 36444 PWs)   bands (ev):

   -44.1430 -44.1429 -22.2764 -22.2764 -22.1895 -22.1895 -22.0667 -22.0666
    -7.5808  -7.1071  -7.0435  -6.7984  -6.4262  -5.3348  -5.0605  -4.8464
    -4.7533  -4.0002   0.5497   0.9196   1.1699   1.3115   1.3887   1.5376
     1.9977   2.0397   2.1710   2.3468   2.4452   3.1882   3.2960   3.3608
     3.5652   3.6110   3.7558   3.8022   3.8590   4.0719   4.1373   4.1556
     4.4022   4.5543   5.9526   6.0334   6.3821   6.5511   6.7603   6.8480
     6.8612   6.9989

          k =-0.2541-0.4514 0.1485 ( 36461 PWs)   bands (ev):

   -44.1430 -44.1430 -22.2764 -22.2764 -22.1895 -22.1895 -22.0667 -22.0666
    -7.5438  -7.2702  -6.9241  -6.8109  -6.3115  -5.6360  -4.9145  -4.7783
    -4.6744  -4.0901   0.5798   0.9783   1.0233   1.2850   1.3357   1.6003
     1.8639   2.2745   2.3561   2.4193   2.4863   2.8871   3.2781   3.2964
     3.4057   3.5518   3.7400   3.8510   3.8602   3.9786   4.1382   4.1643
     4.7243   4.8775   5.7778   5.9434   6.1803   6.3116   6.6949   6.7419
     7.1295   7.2719

          k =-0.2541-0.4514-0.2971 ( 36490 PWs)   bands (ev):

   -44.1430 -44.1430 -22.2764 -22.2764 -22.1895 -22.1895 -22.0666 -22.0666
    -7.4360  -7.4360  -6.8486  -6.8486  -6.0165  -6.0165  -4.8391  -4.8391
    -4.3380  -4.3380   0.7201   0.7201   1.2625   1.2625   1.3101   1.3101
     2.2809   2.2809   2.3888   2.3888   2.6692   2.6692   3.2221   3.2221
     3.2988   3.2988   3.8022   3.8022   3.9883   3.9883   4.1448   4.1448
     5.1317   5.1317   5.6487   5.6487   6.0674   6.0674   6.7037   6.7037
     7.3589   7.3589

          k = 0.0000-0.3869 0.0000 ( 36477 PWs)   bands (ev):

   -44.1433 -44.1433 -22.2783 -22.2783 -22.1797 -22.1797 -22.0679 -22.0678
    -7.6992  -7.2148  -7.1153  -6.8430  -6.4916  -5.3775  -5.0594  -4.8892
    -4.7951  -3.8570   0.4860   0.7867   1.0366   1.2043   1.5913   1.6618
     2.3990   2.4167   2.7258   2.8494   2.9751   3.0547   3.0775   3.0920
     3.4555   3.6360   3.6757   3.9440   3.9554   4.0132   4.1756   4.6461
     4.9310   5.4075   5.7599   5.7738   5.9430   6.1480   6.4985   6.6435
     6.9555   7.1886

          k = 0.0000-0.3869 0.1485 ( 36452 PWs)   bands (ev):

   -44.1433 -44.1433 -22.2783 -22.2783 -22.1797 -22.1797 -22.0679 -22.0678
    -7.6612  -7.3785  -6.9869  -6.8561  -6.3829  -5.6927  -4.9344  -4.8179
    -4.6702  -3.9707   0.5231   0.9852   1.0097   1.1566   1.2077   2.0185
     2.1788   2.4287   2.6356   2.9033   2.9687   2.9694   3.0231   3.3172
     3.5922   3.6699   3.7214   3.9098   4.0192   4.0581   4.1089   4.6546
     4.8170   5.0032   5.8425   5.9830   6.0756   6.0829   6.5247   6.7391
     6.7866   7.1595

          k = 0.0000-0.3869-0.2971 ( 36454 PWs)   bands (ev):

   -44.1433 -44.1433 -22.2783 -22.2783 -22.1797 -22.1797 -22.0678 -22.0678
    -7.5503  -7.5503  -6.8980  -6.8980  -6.0874  -6.0874  -4.8721  -4.8721
    -4.2728  -4.2728   0.7188   0.7188   1.1385   1.1385   1.4497   1.4497
     2.5135   2.5135   2.6970   2.6970   2.9490   2.9490   3.0811   3.0811
     3.7938   3.7938   3.9223   3.9223   3.9894   3.9894   4.3945   4.3945
     4.6972   4.6972   5.9261   5.9261   6.3130   6.3130   6.4027   6.4027
     7.0527   7.0527

          k =-2.0325 0.0000 0.0000 ( 36452 PWs)   bands (ev):

   -44.1433 -44.1433 -22.2783 -22.2783 -22.1797 -22.1797 -22.0679 -22.0678
    -7.6939  -7.2139  -7.1107  -6.8474  -6.5022  -5.3779  -5.0643  -4.8891
    -4.7930  -3.8576   0.4908   0.7925   1.1511   1.1964   1.6007   1.7034
     2.4014   2.4179   2.7342   2.8481   2.9120   2.9721   2.9723   3.1168
     3.5634   3.6246   3.6920   3.8197   3.9482   3.9527   4.1755   4.6467
     4.9220   5.3982   5.7674   5.8058   5.9666   6.1606   6.5187   6.5928
     6.9558   7.1814

          k =-2.0325 0.0000 0.1485 ( 36456 PWs)   bands (ev):

   -44.1433 -44.1433 -22.2783 -22.2783 -22.1797 -22.1797 -22.0679 -22.0678
    -7.6560  -7.3744  -6.9884  -6.8610  -6.3898  -5.6932  -4.9413  -4.8169
    -4.6676  -3.9707   0.5250   0.9963   1.0408   1.2011   1.2711   2.0287
     2.1939   2.4314   2.6408   2.8561   2.9037   2.9090   2.9671   3.3633
     3.5719   3.7114   3.7148   3.8931   3.9524   4.0076   4.1065   4.6551
     4.8121   5.0024   5.8641   5.9877   6.0777   6.0877   6.5011   6.7468
     6.7874   7.1488

          k =-2.0325 0.0000-0.2971 ( 36460 PWs)   bands (ev):

   -44.1433 -44.1433 -22.2783 -22.2783 -22.1797 -22.1797 -22.0678 -22.0678
    -7.5453  -7.5453  -6.9029  -6.9029  -6.0897  -6.0897  -4.8749  -4.8749
    -4.2715  -4.2715   0.7187   0.7187   1.2135   1.2135   1.4596   1.4596
     2.5170   2.5170   2.6621   2.6621   2.9482   2.9482   3.0158   3.0158
     3.8158   3.8158   3.9157   3.9157   3.9383   3.9383   4.3885   4.3885
     4.6965   4.6965   5.9159   5.9159   6.3219   6.3219   6.4050   6.4050
     7.0404   7.0404

     the Fermi energy is     5.4145 ev

!    total energy              =   -4240.94935877 Ry

     total all-electron energy =   -150287.643053 Ry
     estimated scf accuracy    <          6.8E-11 Ry
     smearing contrib. (-TS)   =      -0.00002518 Ry
     internal energy E=F+TS    =   -4240.94933358 Ry

     The total energy is F=E-TS. E is the sum of the following terms:
     one-electron contribution =    -165.95006528 Ry
     hartree contribution      =     116.45241281 Ry
     xc contribution           =    -201.45437749 Ry
     ewald contribution        =    -222.48380240 Ry
     one-center paw contrib.   =   -3767.51350123 Ry

     convergence has been achieved in  19 iterations

     Forces acting on atoms (cartesian axes, Ry/au):

     atom    1 type  1   force =     0.00000000   -0.00995015    0.00000000
     atom    2 type  1   force =     0.00000000    0.00995015    0.00000000
     atom    3 type  2   force =    -0.00000000    0.00034000    0.00000000
     atom    4 type  2   force =     0.00000000   -0.00034000    0.00000000
     atom    5 type  2   force =     0.00000000    0.00210987    0.00051571
     atom    6 type  2   force =     0.00000000   -0.00210987   -0.00051571
     atom    7 type  2   force =     0.00000000    0.00210987   -0.00051571
     atom    8 type  2   force =     0.00000000   -0.00210987    0.00051571
     atom    9 type  2   force =     0.00000000    0.01226546    0.01167397
     atom   10 type  2   force =     0.00000000   -0.01226546   -0.01167397
     atom   11 type  2   force =     0.00000000    0.01226546   -0.01167397
     atom   12 type  2   force =     0.00000000   -0.01226546    0.01167397

     Total force =     0.036932     Total SCF correction =     0.000011


     Computing stress (Cartesian axis) and pressure

          total   stress  (Ry/bohr**3)                   (kbar)     P=       -2.93
  -0.00001699   0.00000000   0.00000000           -2.50        0.00        0.00
   0.00000000  -0.00001786   0.00000000            0.00       -2.63        0.00
   0.00000000   0.00000000  -0.00002491            0.00        0.00       -3.66

 
     init_run     :     35.43s CPU     36.47s WALL (       1 calls)
     electrons    :   1864.58s CPU   1884.63s WALL (       1 calls)
     forces       :      7.09s CPU      7.34s WALL (       1 calls)
     stress       :     42.96s CPU     43.61s WALL (       1 calls)

     Called by init_run:
     wfcinit      :     30.43s CPU     30.73s WALL (       1 calls)
     potinit      :      1.48s CPU      1.54s WALL (       1 calls)
     hinit0       :      1.75s CPU      2.13s WALL (       1 calls)

     Called by electrons:
     c_bands      :   1525.42s CPU   1534.43s WALL (      20 calls)
     sum_band     :    303.59s CPU    310.16s WALL (      20 calls)
     v_of_rho     :      9.21s CPU      9.87s WALL (      20 calls)
     newd         :     18.65s CPU     22.65s WALL (      20 calls)
     PAW_pot      :      7.06s CPU      7.08s WALL (      20 calls)
     mix_rho      :      1.72s CPU      1.77s WALL (      20 calls)

     Called by c_bands:
     init_us_2    :     14.79s CPU     14.88s WALL (    2709 calls)
     cegterg      :   1440.45s CPU   1448.64s WALL (    1260 calls)

     Called by *egterg:
     cdiaghg      :     31.58s CPU     31.73s WALL (    9087 calls)
     h_psi        :   1236.91s CPU   1244.72s WALL (    9213 calls)
     s_psi        :     56.81s CPU     56.92s WALL (    9213 calls)
     g_psi        :      2.53s CPU      2.55s WALL (    7890 calls)

     Called by h_psi:
     h_psi:calbec :     48.18s CPU     48.31s WALL (    9213 calls)
     vloc_psi     :   1127.75s CPU   1135.22s WALL (    9213 calls)
     add_vuspsi   :     56.54s CPU     56.67s WALL (    9213 calls)

     General routines
     calbec       :     62.36s CPU     62.54s WALL (   10788 calls)
     fft          :      8.08s CPU      8.58s WALL (     284 calls)
     ffts         :      0.21s CPU      0.21s WALL (      40 calls)
     fftw         :   1120.79s CPU   1128.04s WALL (  470226 calls)
     interpolate  :      0.68s CPU      0.68s WALL (      20 calls)
 
     Parallel routines
     fft_scatt_xy :    301.67s CPU    303.62s WALL (  470550 calls)
     fft_scatt_yz :    219.36s CPU    221.17s WALL (  470550 calls)
 
     PWSCF        :  32m30.34s CPU  32m55.71s WALL

 
   This run was terminated on:  15:19:23  19Nov2021            

=------------------------------------------------------------------------------=
   JOB DONE.
=------------------------------------------------------------------------------=
