
     Program PWSCF v.6.8 starts on 19Nov2021 at 15:14:32 

     This program is part of the open-source Quantum ESPRESSO suite
     for quantum simulation of materials; please cite
         "P. Giannozzi et al., J. Phys.:Condens. Matter 21 395502 (2009);
         "P. Giannozzi et al., J. Phys.:Condens. Matter 29 465901 (2017);
         "P. Giannozzi et al., J. Chem. Phys. 152 154105 (2020);
          URL http://www.quantum-espresso.org", 
     in publications or presentations arising from this work. More details at
     http://www.quantum-espresso.org/quote

     Parallel version (MPI), running on    10 processors

     MPI processes distributed on     1 nodes
     R & G space division:  proc/nbgrp/npool/nimage =      10
     70790 MiB available memory on the printing compute node when the environment starts
 
     Waiting for input...
     Reading input from standard input

     Current dimensions of program PWSCF are:
     Max number of different atomic species (ntypx) = 10
     Max number of k-points (npk) =  40000
     Max angular momentum in pseudopotentials (lmaxx) =  4
     file Zr.pbe-spn-kjpaw_psl.1.0.0.UPF: wavefunction(s)  4S 4P renormalized
     file Te.pbe-n-kjpaw_psl.1.0.0.UPF: wavefunction(s)  5S 5P renormalized
     Message from routine setup:
     using ibrav=0 with symmetry is DISCOURAGED, use correct ibrav instead

     Subspace diagonalization in iterative solution of the eigenvalue problem:
     a serial algorithm will be used

 
     Parallelization info
     --------------------
     sticks:   dense  smooth     PW     G-vecs:    dense   smooth      PW
     Min         734     293     87               115340    29174    4753
     Max         735     295     88               115345    29176    4760
     Sum        7345    2937    873              1153415   291749   47557
 
     Using Slab Decomposition
 


     bravais-lattice index     =            0
     lattice parameter (alat)  =      15.5510  a.u.
     unit-cell volume          =    3018.5011 (a.u.)^3
     number of atoms/cell      =           12
     number of atomic types    =            2
     number of electrons       =        84.00
     number of Kohn-Sham states=           50
     kinetic-energy cutoff     =      80.0000  Ry
     charge density cutoff     =     800.0000  Ry
     scf convergence threshold =      1.0E-10
     mixing beta               =       0.7000
     number of iterations used =            8  plain     mixing
     Exchange-correlation= SLA  PW   PBX  PBC
                           (   1   4   3   4   0   0   0)

     celldm(1)=  15.551040  celldm(2)=   0.000000  celldm(3)=   0.000000
     celldm(4)=   0.000000  celldm(5)=   0.000000  celldm(6)=   0.000000

     crystal axes: (cart. coord. in units of alat)
               a(1) = (   0.246007  -0.969268   0.000000 )  
               a(2) = (   0.246007   0.969268   0.000000 )  
               a(3) = (   0.000000   0.000000   1.683031 )  

     reciprocal axes: (cart. coord. in units 2 pi/alat)
               b(1) = (  2.032465 -0.515853  0.000000 )  
               b(2) = (  2.032465  0.515853  0.000000 )  
               b(3) = (  0.000000  0.000000  0.594166 )  


     PseudoPot. # 1 for Zr read from file:
     pseudo/Zr.pbe-spn-kjpaw_psl.1.0.0.UPF
     MD5 check sum: 02112c41713a0468aff2bb39ef194e36
     Pseudo is Projector augmented-wave + core cor, Zval = 12.0
     Generated using &quot;atomic&quot; code by A. Dal Corso  v.6.2.2
     Shape of augmentation charge: PSQ
     Using radial grid of 1225 points,  6 beta functions with: 
                l(1) =   0
                l(2) =   0
                l(3) =   1
                l(4) =   1
                l(5) =   2
                l(6) =   2
     Q(r) pseudized with 0 coefficients 


     PseudoPot. # 2 for Te read from file:
     pseudo/Te.pbe-n-kjpaw_psl.1.0.0.UPF
     MD5 check sum: 66247bff2bd9dbf220fbb0bf5ab56e9d
     Pseudo is Projector augmented-wave + core cor, Zval =  6.0
     Generated using &quot;atomic&quot; code by A. Dal Corso  v.6.3
     Shape of augmentation charge: PSQ
     Using radial grid of 1245 points,  6 beta functions with: 
                l(1) =   0
                l(2) =   0
                l(3) =   1
                l(4) =   1
                l(5) =   2
                l(6) =   2
     Q(r) pseudized with 0 coefficients 


     atomic species   valence    mass     pseudopotential
        Zr            12.00    91.22000     Zr( 1.00)
        Te             6.00   127.60000     Te( 1.00)

      8 Sym. Ops., with inversion, found ( 4 have fractional translation)



   Cartesian axes

     site n.     atom                  positions (alat units)
         1           Zr  tau(   1) = (   0.0000000   0.6049004   0.4207578  )
         2           Zr  tau(   2) = (   0.2460067   0.3643677   1.2622733  )
         3           Te  tau(   3) = (   0.2460067   0.3342342   0.4207578  )
         4           Te  tau(   4) = (   0.0000000   0.6350339   1.2622733  )
         5           Te  tau(   5) = (   0.2460067   0.8101476   0.2522830  )
         6           Te  tau(   6) = (   0.0000000   0.1591205   1.4307480  )
         7           Te  tau(   7) = (   0.2460067   0.8101476   0.5892325  )
         8           Te  tau(   8) = (   0.0000000   0.1591205   1.0937986  )
         9           Te  tau(   9) = (   0.0000000   0.4161305   0.7320641  )
        10           Te  tau(  10) = (   0.2460067   0.5531376   0.9509669  )
        11           Te  tau(  11) = (   0.0000000   0.4161305   0.1094514  )
        12           Te  tau(  12) = (   0.2460067   0.5531376   1.5735797  )

     number of k points=    63  Methfessel-Paxton smearing, width (Ry)=  0.0030
                       cart. coord. in units 2pi/alat
        k(    1) = (   0.0000000   0.0000000   0.0000000), wk =   0.0078125
        k(    2) = (   0.0000000   0.0000000   0.1485415), wk =   0.0156250
        k(    3) = (   0.0000000   0.0000000  -0.2970830), wk =   0.0078125
        k(    4) = (   0.2540581   0.0644816   0.0000000), wk =   0.0312500
        k(    5) = (   0.2540581   0.0644816   0.1485415), wk =   0.0625000
        k(    6) = (   0.2540581   0.0644816  -0.2970830), wk =   0.0312500
        k(    7) = (   0.5081162   0.1289633   0.0000000), wk =   0.0312500
        k(    8) = (   0.5081162   0.1289633   0.1485415), wk =   0.0625000
        k(    9) = (   0.5081162   0.1289633  -0.2970830), wk =   0.0312500
        k(   10) = (   0.7621743   0.1934449   0.0000000), wk =   0.0312500
        k(   11) = (   0.7621743   0.1934449   0.1485415), wk =   0.0625000
        k(   12) = (   0.7621743   0.1934449  -0.2970830), wk =   0.0312500
        k(   13) = (  -1.0162324  -0.2579266   0.0000000), wk =   0.0156250
        k(   14) = (  -1.0162324  -0.2579266   0.1485415), wk =   0.0312500
        k(   15) = (  -1.0162324  -0.2579266  -0.2970830), wk =   0.0156250
        k(   16) = (   0.5081162   0.0000000   0.0000000), wk =   0.0156250
        k(   17) = (   0.5081162   0.0000000   0.1485415), wk =   0.0312500
        k(   18) = (   0.5081162   0.0000000  -0.2970830), wk =   0.0156250
        k(   19) = (   0.7621743   0.0644816   0.0000000), wk =   0.0312500
        k(   20) = (   0.7621743   0.0644816   0.1485415), wk =   0.0625000
        k(   21) = (   0.7621743   0.0644816  -0.2970830), wk =   0.0312500
        k(   22) = (   1.0162324   0.1289633   0.0000000), wk =   0.0312500
        k(   23) = (   1.0162324   0.1289633   0.1485415), wk =   0.0625000
        k(   24) = (   1.0162324   0.1289633  -0.2970830), wk =   0.0312500
        k(   25) = (  -0.7621743  -0.3224082   0.0000000), wk =   0.0312500
        k(   26) = (  -0.7621743  -0.3224082   0.1485415), wk =   0.0625000
        k(   27) = (  -0.7621743  -0.3224082  -0.2970830), wk =   0.0312500
        k(   28) = (  -0.5081162  -0.2579266   0.0000000), wk =   0.0312500
        k(   29) = (  -0.5081162  -0.2579266   0.1485415), wk =   0.0625000
        k(   30) = (  -0.5081162  -0.2579266  -0.2970830), wk =   0.0312500
        k(   31) = (  -0.2540581  -0.1934449   0.0000000), wk =   0.0312500
        k(   32) = (  -0.2540581  -0.1934449   0.1485415), wk =   0.0625000
        k(   33) = (  -0.2540581  -0.1934449  -0.2970830), wk =   0.0312500
        k(   34) = (   0.0000000  -0.1289633   0.0000000), wk =   0.0156250
        k(   35) = (   0.0000000  -0.1289633   0.1485415), wk =   0.0312500
        k(   36) = (   0.0000000  -0.1289633  -0.2970830), wk =   0.0156250
        k(   37) = (   1.0162324   0.0000000   0.0000000), wk =   0.0156250
        k(   38) = (   1.0162324   0.0000000   0.1485415), wk =   0.0312500
        k(   39) = (   1.0162324   0.0000000  -0.2970830), wk =   0.0156250
        k(   40) = (   1.2702905   0.0644816   0.0000000), wk =   0.0312500
        k(   41) = (   1.2702905   0.0644816   0.1485415), wk =   0.0625000
        k(   42) = (   1.2702905   0.0644816  -0.2970830), wk =   0.0312500
        k(   43) = (  -0.5081162  -0.3868899   0.0000000), wk =   0.0312500
        k(   44) = (  -0.5081162  -0.3868899   0.1485415), wk =   0.0625000
        k(   45) = (  -0.5081162  -0.3868899  -0.2970830), wk =   0.0312500
        k(   46) = (  -0.2540581  -0.3224082   0.0000000), wk =   0.0312500
        k(   47) = (  -0.2540581  -0.3224082   0.1485415), wk =   0.0625000
        k(   48) = (  -0.2540581  -0.3224082  -0.2970830), wk =   0.0312500
        k(   49) = (   0.0000000  -0.2579266   0.0000000), wk =   0.0156250
        k(   50) = (   0.0000000  -0.2579266   0.1485415), wk =   0.0312500
        k(   51) = (   0.0000000  -0.2579266  -0.2970830), wk =   0.0156250
        k(   52) = (   1.5243485   0.0000000   0.0000000), wk =   0.0156250
        k(   53) = (   1.5243485   0.0000000   0.1485415), wk =   0.0312500
        k(   54) = (   1.5243485   0.0000000  -0.2970830), wk =   0.0156250
        k(   55) = (  -0.2540581  -0.4513715   0.0000000), wk =   0.0312500
        k(   56) = (  -0.2540581  -0.4513715   0.1485415), wk =   0.0625000
        k(   57) = (  -0.2540581  -0.4513715  -0.2970830), wk =   0.0312500
        k(   58) = (   0.0000000  -0.3868899   0.0000000), wk =   0.0156250
        k(   59) = (   0.0000000  -0.3868899   0.1485415), wk =   0.0312500
        k(   60) = (   0.0000000  -0.3868899  -0.2970830), wk =   0.0156250
        k(   61) = (  -2.0324647   0.0000000   0.0000000), wk =   0.0078125
        k(   62) = (  -2.0324647   0.0000000   0.1485415), wk =   0.0156250
        k(   63) = (  -2.0324647   0.0000000  -0.2970830), wk =   0.0078125

     Dense  grid:  1153415 G-vectors     FFT dimensions: ( 144, 144, 240)

     Smooth grid:   291749 G-vectors     FFT dimensions: (  90,  90, 150)

     Estimated max dynamical RAM per process >     657.19 MB

     Estimated total dynamical RAM >       6.42 GB

     Initial potential from superposition of free atoms

     starting charge   83.99353, renormalised to   84.00000
     Starting wfcs are   66 randomized atomic wfcs
     Checking if some PAW data can be deallocated... 

     total cpu time spent up to now is       19.3 secs

     Self-consistent Calculation

     iteration #  1     ecut=    80.00 Ry     beta= 0.70
     Davidson diagonalization with overlap
     ethr =  1.00E-02,  avg # of iterations =  2.1

     Threshold (ethr) on eigenvalues was too large:
     Diagonalizing with lowered threshold

     Davidson diagonalization with overlap
     ethr =  4.20E-04,  avg # of iterations =  4.0

     total cpu time spent up to now is      100.6 secs

     total energy              =   -4240.73115946 Ry
     estimated scf accuracy    <       0.43575813 Ry

     iteration #  2     ecut=    80.00 Ry     beta= 0.70
     Davidson diagonalization with overlap
     ethr =  5.19E-04,  avg # of iterations =  7.6
     Minimization algorithm failed to find Fermi energy: reverting to bisection
     Possible cause: smearing is larger than the electronic band-gap.

     total cpu time spent up to now is      160.8 secs

     total energy              =   -4240.63782006 Ry
     estimated scf accuracy    <       2.04581242 Ry

     iteration #  3     ecut=    80.00 Ry     beta= 0.70
     Davidson diagonalization with overlap
     ethr =  5.19E-04,  avg # of iterations =  5.3

     total cpu time spent up to now is      211.0 secs

     total energy              =   -4240.93835053 Ry
     estimated scf accuracy    <       0.00965840 Ry

     iteration #  4     ecut=    80.00 Ry     beta= 0.70
     Davidson diagonalization with overlap
     c_bands:  2 eigenvalues not converged
     c_bands:  1 eigenvalues not converged
     c_bands:  1 eigenvalues not converged
     c_bands:  2 eigenvalues not converged
     c_bands:  1 eigenvalues not converged
     c_bands:  1 eigenvalues not converged
     c_bands:  2 eigenvalues not converged
     c_bands:  1 eigenvalues not converged
     c_bands:  1 eigenvalues not converged
     c_bands:  1 eigenvalues not converged
     c_bands:  4 eigenvalues not converged
     c_bands:  2 eigenvalues not converged
     c_bands:  1 eigenvalues not converged
     c_bands:  1 eigenvalues not converged
     c_bands:  1 eigenvalues not converged
     c_bands:  1 eigenvalues not converged
     c_bands:  1 eigenvalues not converged
     c_bands:  1 eigenvalues not converged
     c_bands:  1 eigenvalues not converged
     c_bands:  1 eigenvalues not converged
     c_bands:  1 eigenvalues not converged
     c_bands:  1 eigenvalues not converged
     c_bands:  1 eigenvalues not converged
     ethr =  1.15E-05,  avg # of iterations = 17.5

     total cpu time spent up to now is      308.4 secs

     total energy              =   -4240.95030863 Ry
     estimated scf accuracy    <       0.05938477 Ry

     iteration #  5     ecut=    80.00 Ry     beta= 0.70
     Davidson diagonalization with overlap
     ethr =  1.15E-05,  avg # of iterations =  7.3

     total cpu time spent up to now is      359.3 secs

     total energy              =   -4240.95213473 Ry
     estimated scf accuracy    <       0.01115476 Ry

     iteration #  6     ecut=    80.00 Ry     beta= 0.70
     Davidson diagonalization with overlap
     ethr =  1.15E-05,  avg # of iterations =  3.8

     total cpu time spent up to now is      400.6 secs

     total energy              =   -4240.95297458 Ry
     estimated scf accuracy    <       0.00135686 Ry

     iteration #  7     ecut=    80.00 Ry     beta= 0.70
     Davidson diagonalization with overlap
     c_bands:  1 eigenvalues not converged
     ethr =  1.62E-06,  avg # of iterations = 11.4

     total cpu time spent up to now is      467.9 secs

     total energy              =   -4240.95365948 Ry
     estimated scf accuracy    <       0.00150783 Ry

     iteration #  8     ecut=    80.00 Ry     beta= 0.70
     Davidson diagonalization with overlap
     ethr =  1.62E-06,  avg # of iterations =  2.2

     total cpu time spent up to now is      504.8 secs

     total energy              =   -4240.95369866 Ry
     estimated scf accuracy    <       0.00023184 Ry

     iteration #  9     ecut=    80.00 Ry     beta= 0.70
     Davidson diagonalization with overlap
     ethr =  2.76E-07,  avg # of iterations =  6.3

     total cpu time spent up to now is      553.8 secs

     total energy              =   -4240.95377111 Ry
     estimated scf accuracy    <       0.00002292 Ry

     iteration # 10     ecut=    80.00 Ry     beta= 0.70
     Davidson diagonalization with overlap
     ethr =  2.73E-08,  avg # of iterations =  3.9

     total cpu time spent up to now is      595.1 secs

     total energy              =   -4240.95377413 Ry
     estimated scf accuracy    <       0.00000583 Ry

     iteration # 11     ecut=    80.00 Ry     beta= 0.70
     Davidson diagonalization with overlap
     ethr =  6.94E-09,  avg # of iterations =  6.1

     total cpu time spent up to now is      643.8 secs

     total energy              =   -4240.95377628 Ry
     estimated scf accuracy    <       0.00000093 Ry

     iteration # 12     ecut=    80.00 Ry     beta= 0.70
     Davidson diagonalization with overlap
     ethr =  1.10E-09,  avg # of iterations =  3.2

     total cpu time spent up to now is      683.0 secs

     total energy              =   -4240.95377639 Ry
     estimated scf accuracy    <       0.00000006 Ry

     iteration # 13     ecut=    80.00 Ry     beta= 0.70
     Davidson diagonalization with overlap
     ethr =  7.56E-11,  avg # of iterations =  8.3

     total cpu time spent up to now is      744.7 secs

     total energy              =   -4240.95377645 Ry
     estimated scf accuracy    <       0.00000006 Ry

     iteration # 14     ecut=    80.00 Ry     beta= 0.70
     Davidson diagonalization with overlap
     ethr =  7.19E-11,  avg # of iterations =  1.4

     total cpu time spent up to now is      779.1 secs

     total energy              =   -4240.95377645 Ry
     estimated scf accuracy    <       0.00000002 Ry

     iteration # 15     ecut=    80.00 Ry     beta= 0.70
     Davidson diagonalization with overlap
     ethr =  2.55E-11,  avg # of iterations =  5.7

     total cpu time spent up to now is      825.2 secs

     total energy              =   -4240.95377645 Ry
     estimated scf accuracy    <          1.6E-09 Ry

     iteration # 16     ecut=    80.00 Ry     beta= 0.70
     Davidson diagonalization with overlap
     ethr =  1.91E-12,  avg # of iterations =  6.2

     total cpu time spent up to now is      871.7 secs

     total energy              =   -4240.95377645 Ry
     estimated scf accuracy    <          1.3E-09 Ry

     iteration # 17     ecut=    80.00 Ry     beta= 0.70
     Davidson diagonalization with overlap
     ethr =  1.49E-12,  avg # of iterations =  3.1

     total cpu time spent up to now is      909.3 secs

     total energy              =   -4240.95377645 Ry
     estimated scf accuracy    <          2.0E-10 Ry

     iteration # 18     ecut=    80.00 Ry     beta= 0.70
     Davidson diagonalization with overlap
     ethr =  2.40E-13,  avg # of iterations =  6.2

     total cpu time spent up to now is      957.5 secs

     End of self-consistent calculation

          k = 0.0000 0.0000 0.0000 ( 36359 PWs)   bands (ev):

   -44.1352 -44.1352 -22.2594 -22.2594 -22.1669 -22.1669 -22.0663 -22.0661
    -7.9090  -7.5745  -7.1291  -6.8791  -6.2747  -5.4127  -4.8975  -4.8315
    -4.7808  -3.8265   0.3235   0.7523   0.7799   1.1265   1.4287   1.5329
     2.2156   2.3197   2.4738   2.7509   2.9365   3.0086   3.2715   3.3859
     3.7207   3.8197   3.9912   4.0730   4.2651   4.3384   4.3724   4.6844
     4.8196   5.4714   5.6381   5.8488   5.8672   5.9330   6.1148   6.8206
     7.0008   7.2723

          k = 0.0000 0.0000 0.1485 ( 36415 PWs)   bands (ev):

   -44.1352 -44.1352 -22.2594 -22.2594 -22.1669 -22.1669 -22.0662 -22.0661
    -7.8758  -7.6527  -7.0584  -6.8972  -6.2004  -5.6539  -4.8293  -4.7890
    -4.6280  -3.9412   0.3920   0.8141   0.9021   0.9969   1.0843   1.9027
     2.0518   2.2413   2.4130   2.8015   2.9215   3.1081   3.4011   3.4038
     3.7178   3.8801   3.9702   4.0770   4.2007   4.3608   4.3889   4.6848
     4.7584   4.9725   5.8180   5.9348   5.9359   6.0515   6.4740   6.6326
     6.8207   7.1817

          k = 0.0000 0.0000-0.2971 ( 36410 PWs)   bands (ev):

   -44.1352 -44.1352 -22.2594 -22.2594 -22.1669 -22.1669 -22.0662 -22.0662
    -7.7820  -7.7820  -6.9566  -6.9566  -5.9793  -5.9793  -4.8089  -4.8089
    -4.2415  -4.2415   0.6108   0.6108   0.9341   0.9341   1.3533   1.3533
     2.3137   2.3137   2.6272   2.6272   2.8751   2.8751   3.5181   3.5181
     3.9008   3.9008   4.0363   4.0363   4.3451   4.3451   4.3931   4.3931
     4.6986   4.6986   5.9235   5.9235   6.2242   6.2242   6.4380   6.4380
     6.9540   6.9540

          k = 0.2541 0.0645 0.0000 ( 36396 PWs)   bands (ev):

   -44.1348 -44.1348 -22.2574 -22.2574 -22.1766 -22.1766 -22.0651 -22.0650
    -7.7898  -7.4599  -7.0595  -6.8311  -6.2133  -5.3668  -4.9192  -4.7881
    -4.7366  -3.9834   0.4089   0.8762   0.9081   1.2205   1.2425   1.4278
     1.7400   1.8385   1.9419   2.5714   2.5965   3.1831   3.2917   3.7252
     3.7526   3.7600   3.8248   3.8354   4.0340   4.2481   4.3007   4.3204
     4.4915   4.5690   5.8366   5.9783   6.2084   6.5784   6.5968   6.7230
     7.0168   7.1849

          k = 0.2541 0.0645 0.1485 ( 36423 PWs)   bands (ev):

   -44.1348 -44.1348 -22.2574 -22.2574 -22.1766 -22.1766 -22.0651 -22.0650
    -7.7572  -7.5377  -6.9934  -6.8475  -6.1374  -5.6006  -4.8018  -4.7468
    -4.6540  -4.0748   0.4656   0.9243   0.9368   0.9589   1.1920   1.3997
     1.7625   2.0194   2.2137   2.5584   2.5809   2.9526   3.3535   3.3650
     3.5540   3.7856   3.9372   3.9628   4.0348   4.1631   4.3416   4.3537
     4.6846   4.8303   5.8501   5.9450   6.1625   6.2591   6.4011   6.7501
     7.2199   7.2910

          k = 0.2541 0.0645-0.2971 ( 36436 PWs)   bands (ev):

   -44.1348 -44.1348 -22.2574 -22.2574 -22.1766 -22.1766 -22.0650 -22.0650
    -7.6650  -7.6650  -6.9010  -6.9010  -5.9170  -5.9170  -4.7715  -4.7715
    -4.3227  -4.3227   0.6435   0.6435   1.0317   1.0317   1.1545   1.1545
     2.0610   2.0610   2.4778   2.4778   2.6669   2.6669   3.2041   3.2041
     3.6394   3.6394   3.9522   3.9522   4.1191   4.1191   4.3624   4.3624
     5.0119   5.0119   5.7843   5.7843   6.1449   6.1449   6.4474   6.4474
     7.3995   7.3995

          k = 0.5081 0.1290 0.0000 ( 36499 PWs)   bands (ev):

   -44.1339 -44.1339 -22.2527 -22.2527 -22.2000 -22.2000 -22.0623 -22.0622
    -7.4466  -7.1258  -6.8946  -6.7070  -6.0272  -5.2609  -5.0482  -4.6757
    -4.6276  -4.4505   0.3494   0.5938   0.6396   1.1933   1.2262   1.3719
     1.6440   1.6985   1.9374   2.1023   2.1624   2.2720   2.4506   3.3878
     3.4784   3.5094   3.5569   3.5880   3.7726   3.8671   3.9390   4.1846
     4.3949   5.0259   5.6240   6.0720   6.1342   6.5927   6.6130   6.9662
     7.4502   7.5634

          k = 0.5081 0.1290 0.1485 ( 36476 PWs)   bands (ev):

   -44.1339 -44.1339 -22.2527 -22.2527 -22.2000 -22.2000 -22.0623 -22.0622
    -7.4160  -7.2071  -6.8343  -6.7199  -5.9516  -5.4720  -4.8841  -4.6579
    -4.6417  -4.4771   0.3677   0.6100   0.7564   0.9862   1.2501   1.3439
     1.4233   1.5638   2.0159   2.0956   2.3530   2.4525   2.8116   3.4062
     3.4239   3.4762   3.5218   3.6009   3.7203   3.7540   3.8511   4.2352
     4.3106   4.4975   6.1579   6.1945   6.3424   6.5939   6.6576   6.8316
     7.2905   7.5133

          k = 0.5081 0.1290-0.2971 ( 36466 PWs)   bands (ev):

   -44.1339 -44.1339 -22.2527 -22.2527 -22.2000 -22.2000 -22.0623 -22.0623
    -7.3293  -7.3293  -6.7612  -6.7612  -5.7469  -5.7469  -4.7365  -4.7365
    -4.5558  -4.5558   0.4825   0.4825   1.0157   1.0157   1.0744   1.0744
     1.4268   1.4268   2.0573   2.0573   2.6983   2.6983   3.1670   3.1670
     3.4010   3.4010   3.5578   3.5578   3.7192   3.7192   3.8442   3.8442
     4.3155   4.3155   6.3995   6.3995   6.5621   6.5621   6.8435   6.8435
     7.1560   7.1560

          k = 0.7622 0.1934 0.0000 ( 36521 PWs)   bands (ev):

   -44.1330 -44.1330 -22.2479 -22.2479 -22.2232 -22.2232 -22.0595 -22.0595
    -6.9641  -6.7427  -6.6075  -6.5155  -5.7644  -5.4082  -5.2018  -5.1173
    -4.5510  -4.5144  -0.0063   0.0165   0.4625   0.9923   1.0134   1.2749
     1.4833   1.6030   1.9779   2.1050   2.2415   2.3337   2.4221   2.7938
     2.9078   3.2650   3.3438   3.4622   3.5721   3.6717   3.7167   3.8074
     3.8228   4.5661   5.9475   6.3501   6.4087   6.8598   6.8751   6.9568
     7.3232   7.6256

          k = 0.7622 0.1934 0.1485 ( 36503 PWs)   bands (ev):

   -44.1330 -44.1330 -22.2479 -22.2479 -22.2232 -22.2232 -22.0595 -22.0595
    -6.9407  -6.7924  -6.5814  -6.5237  -5.7109  -5.4609  -5.1892  -5.1296
    -4.5426  -4.5173  -0.0096   0.1903   0.3413   0.8854   0.9935   1.2334
     1.4955   1.6201   1.9271   2.0553   2.1269   2.6162   2.6900   2.8613
     2.8946   3.0767   3.2712   3.3878   3.5254   3.6219   3.6664   3.9329
     3.9753   4.5114   5.7337   6.3640   6.6682   6.7746   6.9443   6.9905
     7.1009   7.6000

          k = 0.7622 0.1934-0.2971 ( 36522 PWs)   bands (ev):

   -44.1330 -44.1330 -22.2479 -22.2479 -22.2232 -22.2232 -22.0595 -22.0595
    -6.8764  -6.8764  -6.5469  -6.5469  -5.5855  -5.5855  -5.1592  -5.1592
    -4.5272  -4.5272   0.1245   0.1245   0.5296   0.5296   1.0828   1.0828
     1.5649   1.5649   2.0136   2.0136   2.3867   2.3867   2.8236   2.8236
     2.9855   2.9855   3.3124   3.3124   3.5966   3.5966   3.9001   3.9001
     4.0811   4.0811   6.1853   6.1853   6.4630   6.4630   6.9972   6.9972
     7.4546   7.4546

          k =-1.0162-0.2579 0.0000 ( 36506 PWs)   bands (ev):

   -44.1326 -44.1326 -22.2458 -22.2458 -22.2330 -22.2330 -22.0584 -22.0584
    -6.7207  -6.7005  -6.0356  -6.0245  -5.9882  -5.9814  -5.3070  -5.3064
    -4.4937  -4.4675  -0.0395  -0.0175   0.2787   0.3003   1.0116   1.0207
     1.4679   1.6679   2.2311   2.3917   2.4031   2.4191   2.8062   2.8113
     2.8161   2.8320   3.2059   3.2580   3.3195   3.4020   3.4813   3.6920
     3.8139   4.1044   6.5889   6.5922   6.6144   6.6653   7.0443   7.1415
     7.1467   7.1793

          k =-1.0162-0.2579 0.1485 ( 36506 PWs)   bands (ev):

   -44.1326 -44.1326 -22.2458 -22.2458 -22.2330 -22.2330 -22.0584 -22.0584
    -6.7167  -6.7024  -6.0583  -6.0505  -5.9639  -5.9592  -5.3043  -5.3039
    -4.4930  -4.4745  -0.1367  -0.1300   0.4941   0.5015   1.0085   1.0240
     1.4633   1.5947   2.0059   2.1112   2.3704   2.3980   2.6921   2.6958
     2.9377   3.0398   3.0931   3.1937   3.5552   3.5709   3.6358   3.7512
     4.0301   4.1580   6.0653   6.0829   6.5047   6.5809   7.1317   7.1514
     7.3472   7.4022

          k =-1.0162-0.2579-0.2971 ( 36528 PWs)   bands (ev):

   -44.1326 -44.1326 -22.2458 -22.2458 -22.2330 -22.2330 -22.0584 -22.0584
    -6.7085  -6.7085  -6.0702  -6.0702  -5.9469  -5.9469  -5.3014  -5.3014
    -4.4869  -4.4869  -0.1966  -0.1966   0.7325   0.7325   0.9574   0.9574
     1.5221   1.5221   1.7936   1.7936   2.3706   2.3706   2.7674   2.7674
     2.8887   2.8887   3.1672   3.1672   3.6354   3.6354   3.8050   3.8050
     4.3523   4.3523   5.6380   5.6380   6.4557   6.4557   7.1620   7.1620
     7.4590   7.4590

          k = 0.5081 0.0000 0.0000 ( 36503 PWs)   bands (ev):

   -44.1339 -44.1339 -22.2527 -22.2527 -22.2000 -22.2000 -22.0623 -22.0622
    -7.4502  -7.1265  -6.8955  -6.7034  -6.0238  -5.2609  -5.0454  -4.6699
    -4.6346  -4.4501   0.3548   0.5992   0.6283   1.1887   1.2228   1.3374
     1.6416   1.6949   1.9236   2.1081   2.1688   2.2473   2.4504   3.3790
     3.5006   3.5212   3.5744   3.5783   3.7801   3.9222   3.9231   4.2220
     4.3969   5.0211   5.6299   6.0491   6.1701   6.5546   6.5614   7.0022
     7.4632   7.5796

          k = 0.5081 0.0000 0.1485 ( 36453 PWs)   bands (ev):

   -44.1339 -44.1339 -22.2527 -22.2527 -22.2000 -22.2000 -22.0623 -22.0622
    -7.4195  -7.2090  -6.8332  -6.7165  -5.9491  -5.4718  -4.8798  -4.6594
    -4.6413  -4.4783   0.3703   0.6044   0.7571   0.9898   1.2523   1.3309
     1.3929   1.5424   2.0135   2.1059   2.3897   2.3926   2.8086   3.4025
     3.4686   3.4861   3.4885   3.6102   3.7118   3.8252   3.8370   4.2771
     4.3208   4.4887   6.1502   6.2042   6.3612   6.5464   6.6205   6.8639
     7.3100   7.5231

          k = 0.5081 0.0000-0.2971 ( 36452 PWs)   bands (ev):

   -44.1339 -44.1339 -22.2527 -22.2527 -22.2000 -22.2000 -22.0623 -22.0623
    -7.3323  -7.3323  -6.7583  -6.7583  -5.7459  -5.7459  -4.7326  -4.7326
    -4.5587  -4.5587   0.4804   0.4804   1.0169   1.0169   1.0821   1.0821
     1.3895   1.3895   2.0599   2.0599   2.6891   2.6891   3.1593   3.1593
     3.4053   3.4053   3.5709   3.5709   3.7478   3.7478   3.8418   3.8418
     4.3355   4.3355   6.4151   6.4151   6.5260   6.5260   6.8612   6.8612
     7.1570   7.1570

          k = 0.7622 0.0645 0.0000 ( 36505 PWs)   bands (ev):

   -44.1330 -44.1330 -22.2479 -22.2479 -22.2232 -22.2232 -22.0595 -22.0595
    -6.9722  -6.7403  -6.6088  -6.5083  -5.7644  -5.4052  -5.2024  -5.1165
    -4.5412  -4.5251   0.0036   0.0127   0.4765   1.0020   1.0240   1.2889
     1.4471   1.5654   1.9463   2.1247   2.2616   2.3143   2.3590   2.7688
     2.8965   3.3130   3.3625   3.5046   3.5790   3.6376   3.7005   3.8288
     3.8378   4.5978   5.9450   6.3368   6.4102   6.8472   6.9158   6.9171
     7.3379   7.6447

          k = 0.7622 0.0645 0.1485 ( 36509 PWs)   bands (ev):

   -44.1330 -44.1330 -22.2479 -22.2479 -22.2232 -22.2232 -22.0595 -22.0595
    -6.9483  -6.7945  -6.5782  -6.5165  -5.7113  -5.4598  -5.1884  -5.1287
    -4.5358  -4.5248  -0.0029   0.1890   0.3503   0.8787   1.0175   1.2483
     1.4634   1.6191   1.9575   1.9904   2.0542   2.6281   2.6804   2.8521
     2.8742   3.0803   3.3229   3.3941   3.5537   3.6097   3.6537   3.9629
     3.9918   4.5076   5.7587   6.3424   6.6808   6.7754   6.9465   7.0010
     7.0744   7.6197

          k = 0.7622 0.0645-0.2971 ( 36472 PWs)   bands (ev):

   -44.1330 -44.1330 -22.2479 -22.2479 -22.2232 -22.2232 -22.0595 -22.0595
    -6.8822  -6.8822  -6.5403  -6.5403  -5.5860  -5.5860  -5.1579  -5.1579
    -4.5275  -4.5275   0.1324   0.1324   0.5225   0.5225   1.1049   1.1049
     1.5588   1.5588   1.9623   1.9623   2.3674   2.3674   2.8261   2.8261
     2.9700   2.9700   3.3698   3.3698   3.5938   3.5938   3.8875   3.8875
     4.0971   4.0971   6.2111   6.2111   6.4633   6.4633   6.9654   6.9654
     7.4822   7.4822

          k = 1.0162 0.1290 0.0000 ( 36514 PWs)   bands (ev):

   -44.1327 -44.1326 -22.2458 -22.2458 -22.2330 -22.2330 -22.0584 -22.0584
    -6.7207  -6.7005  -6.0354  -6.0247  -5.9882  -5.9814  -5.3070  -5.3064
    -4.4937  -4.4675  -0.0453  -0.0116   0.2749   0.3043   1.0049   1.0285
     1.4740   1.6585   2.2295   2.3935   2.3991   2.4177   2.8004   2.8011
     2.8115   2.8700   3.2243   3.2399   3.2989   3.3897   3.5260   3.6715
     3.7990   4.1186   6.5803   6.5837   6.6267   6.6725   7.0643   7.1424
     7.1488   7.1647

          k = 1.0162 0.1290 0.1485 ( 36524 PWs)   bands (ev):

   -44.1326 -44.1326 -22.2458 -22.2458 -22.2330 -22.2330 -22.0584 -22.0584
    -6.7167  -6.7024  -6.0582  -6.0506  -5.9639  -5.9592  -5.3043  -5.3039
    -4.4930  -4.4745  -0.1390  -0.1281   0.4955   0.5007   1.0099   1.0229
     1.4688   1.5891   2.0178   2.0943   2.3709   2.3935   2.6539   2.7407
     2.9478   3.0516   3.0855   3.1841   3.5262   3.6035   3.6399   3.7433
     4.0091   4.1774   6.0584   6.0936   6.5015   6.5835   7.1365   7.1506
     7.3555   7.3948

          k = 1.0162 0.1290-0.2971 ( 36516 PWs)   bands (ev):

   -44.1326 -44.1326 -22.2458 -22.2458 -22.2330 -22.2330 -22.0584 -22.0584
    -6.7085  -6.7085  -6.0702  -6.0702  -5.9469  -5.9469  -5.3014  -5.3014
    -4.4869  -4.4869  -0.1967  -0.1967   0.7330   0.7330   0.9573   0.9573
     1.5232   1.5232   1.7944   1.7944   2.3621   2.3621   2.7510   2.7510
     2.9290   2.9290   3.1489   3.1489   3.6383   3.6383   3.8023   3.8023
     4.3528   4.3528   5.6404   5.6404   6.4551   6.4551   7.1634   7.1634
     7.4598   7.4598

          k =-0.7622-0.3224 0.0000 ( 36511 PWs)   bands (ev):

   -44.1330 -44.1330 -22.2479 -22.2479 -22.2232 -22.2232 -22.0595 -22.0595
    -6.9518  -6.7470  -6.6055  -6.5255  -5.7644  -5.4124  -5.2010  -5.1184
    -4.5586  -4.5056  -0.0200   0.0219   0.4430   0.9595   1.0293   1.2578
     1.5040   1.6666   2.0423   2.0809   2.2521   2.3592   2.4508   2.8301
     2.9200   3.2111   3.3286   3.4576   3.5535   3.6408   3.6686   3.7827
     3.8928   4.5123   5.9512   6.3455   6.4416   6.7776   6.9181   7.0230
     7.2923   7.6001

          k =-0.7622-0.3224 0.1485 ( 36492 PWs)   bands (ev):

   -44.1330 -44.1330 -22.2479 -22.2479 -22.2232 -22.2232 -22.0595 -22.0595
    -6.9291  -6.7899  -6.5862  -6.5340  -5.7104  -5.4624  -5.1902  -5.1310
    -4.5478  -4.5111  -0.0192   0.1934   0.3279   0.8893   0.9735   1.2133
     1.5296   1.6260   1.9099   2.1558   2.2055   2.6046   2.6848   2.8793
     2.9112   3.0941   3.2124   3.3703   3.4749   3.6006   3.7140   3.8803
     3.9641   4.5152   5.7004   6.3985   6.6402   6.7714   6.9123   7.0356
     7.1291   7.5602

          k =-0.7622-0.3224-0.2971 ( 36508 PWs)   bands (ev):

   -44.1330 -44.1330 -22.2479 -22.2479 -22.2232 -22.2232 -22.0595 -22.0595
    -6.8677  -6.8677  -6.5565  -6.5565  -5.5848  -5.5848  -5.1611  -5.1611
    -4.5269  -4.5269   0.1136   0.1136   0.5391   0.5391   1.0567   1.0567
     1.5733   1.5733   2.0721   2.0721   2.4321   2.4321   2.8209   2.8209
     3.0084   3.0084   3.2309   3.2309   3.5946   3.5946   3.8976   3.8976
     4.0755   4.0755   6.1518   6.1518   6.4612   6.4612   7.0494   7.0494
     7.4071   7.4071

          k =-0.5081-0.2579 0.0000 ( 36480 PWs)   bands (ev):

   -44.1339 -44.1339 -22.2527 -22.2527 -22.2000 -22.2000 -22.0623 -22.0622
    -7.4377  -7.1243  -6.8932  -6.7151  -6.0357  -5.2609  -5.0550  -4.6843
    -4.6161  -4.4517   0.3368   0.5933   0.6502   1.2041   1.2484   1.4522
     1.6475   1.7167   1.9723   2.0879   2.1553   2.3155   2.4486   3.3935
     3.4081   3.4807   3.5529   3.5984   3.7509   3.7601   3.9616   4.1058
     4.3859   5.0356   5.6123   6.0413   6.1364   6.6905   6.7349   6.8809
     7.4071   7.5267

          k =-0.5081-0.2579 0.1485 ( 36485 PWs)   bands (ev):

   -44.1339 -44.1339 -22.2527 -22.2527 -22.2000 -22.2000 -22.0623 -22.0622
    -7.4074  -7.2024  -6.8375  -6.7281  -5.9578  -5.4726  -4.8942  -4.6545
    -4.6428  -4.4743   0.3616   0.6227   0.7530   0.9777   1.2568   1.3612
     1.5057   1.6246   2.0129   2.0779   2.3383   2.5161   2.8187   3.3300
     3.4265   3.4696   3.5471   3.5846   3.6162   3.7435   3.8568   4.1531
     4.2733   4.5135   6.1468   6.1954   6.3031   6.6955   6.7557   6.7661
     7.2365   7.4930

          k =-0.5081-0.2579-0.2971 ( 36478 PWs)   bands (ev):

   -44.1339 -44.1339 -22.2527 -22.2527 -22.2000 -22.2000 -22.0623 -22.0623
    -7.3219  -7.3219  -6.7685  -6.7685  -5.7493  -5.7493  -4.7455  -4.7455
    -4.5495  -4.5495   0.4874   0.4874   1.0117   1.0117   1.0613   1.0613
     1.5208   1.5208   2.0465   2.0465   2.7253   2.7253   3.1730   3.1730
     3.3842   3.3842   3.5042   3.5042   3.6891   3.6891   3.8464   3.8464
     4.2680   4.2680   6.3636   6.3636   6.6391   6.6391   6.8050   6.8050
     7.1611   7.1611

          k =-0.2541-0.1934 0.0000 ( 36410 PWs)   bands (ev):

   -44.1348 -44.1348 -22.2574 -22.2574 -22.1766 -22.1766 -22.0651 -22.0650
    -7.7836  -7.4588  -7.0541  -6.8368  -6.2260  -5.3688  -4.9278  -4.7954
    -4.7245  -3.9844   0.4341   0.8830   0.9770   1.2164   1.2710   1.4625
     1.7644   1.8626   1.9434   2.5391   2.5867   3.2454   3.2654   3.6663
     3.6995   3.7286   3.7917   3.8631   3.8946   4.1949   4.2782   4.2995
     4.3805   4.6007   5.8922   6.0090   6.2762   6.5790   6.6370   6.7444
     6.9970   7.1040

          k =-0.2541-0.1934 0.1485 ( 36427 PWs)   bands (ev):

   -44.1348 -44.1348 -22.2574 -22.2574 -22.1766 -22.1766 -22.0651 -22.0650
    -7.7513  -7.5346  -6.9919  -6.8528  -6.1475  -5.6032  -4.8198  -4.7398
    -4.6478  -4.0748   0.4892   0.9248   0.9531   1.0383   1.2258   1.4145
     1.7699   2.0225   2.2430   2.5364   2.5685   2.9382   3.3749   3.4060
     3.5640   3.6843   3.8008   3.9007   3.9880   4.1385   4.2975   4.3061
     4.6756   4.8307   5.8409   5.9687   6.1584   6.3294   6.4687   6.7511
     7.1800   7.2804

          k =-0.2541-0.1934-0.2971 ( 36422 PWs)   bands (ev):

   -44.1348 -44.1348 -22.2574 -22.2574 -22.1766 -22.1766 -22.0650 -22.0650
    -7.6600  -7.6600  -6.9043  -6.9043  -5.9226  -5.9226  -4.7760  -4.7760
    -4.3206  -4.3206   0.6625   0.6625   1.0860   1.0860   1.1674   1.1674
     2.0639   2.0639   2.4731   2.4731   2.6666   2.6666   3.2203   3.2203
     3.6254   3.6254   3.8250   3.8250   4.0978   4.0978   4.3094   4.3094
     5.0235   5.0235   5.7486   5.7486   6.1629   6.1629   6.5156   6.5156
     7.3833   7.3833

          k = 0.0000-0.1290 0.0000 ( 36417 PWs)   bands (ev):

   -44.1352 -44.1352 -22.2594 -22.2594 -22.1669 -22.1669 -22.0663 -22.0661
    -7.9058  -7.5739  -7.1254  -6.8821  -6.2828  -5.4144  -4.9032  -4.8369
    -4.7718  -3.8270   0.3418   0.7565   0.8209   1.1362   1.4399   1.5616
     2.2162   2.3194   2.4730   2.7579   2.9378   3.0129   3.3097   3.3778
     3.6731   3.8086   3.8700   4.0128   4.2653   4.2842   4.3245   4.6838
     4.8082   5.4397   5.6605   5.8699   5.8748   5.9823   6.1631   6.8202
     7.0009   7.2338

          k = 0.0000-0.1290 0.1485 ( 36419 PWs)   bands (ev):

   -44.1352 -44.1352 -22.2594 -22.2594 -22.1669 -22.1669 -22.0662 -22.0661
    -7.8727  -7.6511  -7.0568  -6.8999  -6.2070  -5.6559  -4.8394  -4.7842
    -4.6255  -3.9413   0.4098   0.8561   0.9110   1.0019   1.1046   1.9079
     2.0691   2.2419   2.4131   2.8069   2.9233   3.1152   3.3738   3.4336
     3.7088   3.8574   3.8699   3.9940   4.1979   4.3076   4.3435   4.6840
     4.7514   4.9643   5.8305   5.9534   5.9813   6.0568   6.4932   6.6315
     6.8216   7.1610

          k = 0.0000-0.1290-0.2971 ( 36464 PWs)   bands (ev):

   -44.1352 -44.1352 -22.2594 -22.2594 -22.1669 -22.1669 -22.0662 -22.0662
    -7.7793  -7.7793  -6.9579  -6.9579  -5.9832  -5.9832  -4.8111  -4.8111
    -4.2406  -4.2406   0.6308   0.6308   0.9582   0.9582   1.3600   1.3600
     2.3142   2.3142   2.6386   2.6386   2.8785   2.8785   3.5096   3.5096
     3.8424   3.8424   4.0287   4.0287   4.2511   4.2511   4.4048   4.4048
     4.6964   4.6964   5.9413   5.9413   6.2392   6.2392   6.4407   6.4407
     6.9505   6.9505

          k = 1.0162 0.0000 0.0000 ( 36499 PWs)   bands (ev):

   -44.1326 -44.1326 -22.2458 -22.2458 -22.2330 -22.2330 -22.0584 -22.0584
    -6.7207  -6.7005  -6.0352  -6.0249  -5.9882  -5.9814  -5.3070  -5.3064
    -4.4937  -4.4675  -0.0495  -0.0073   0.2720   0.3073   1.0012   1.0332
     1.4810   1.6482   2.2277   2.3957   2.3958   2.4159   2.7966   2.7977
     2.8100   2.8954   3.2430   3.2472   3.2613   3.3725   3.5896   3.6280
     3.7858   4.1316   6.5728   6.5791   6.6346   6.6790   7.0957   7.1388
     7.1433   7.1508

          k = 1.0162 0.0000 0.1485 ( 36485 PWs)   bands (ev):

   -44.1326 -44.1326 -22.2458 -22.2458 -22.2330 -22.2330 -22.0584 -22.0584
    -6.7167  -6.7023  -6.0581  -6.0507  -5.9639  -5.9592  -5.3043  -5.3038
    -4.4930  -4.4745  -0.1406  -0.1267   0.4984   0.4984   1.0119   1.0213
     1.4751   1.5829   2.0396   2.0675   2.3763   2.3843   2.6407   2.7581
     2.9645   3.0679   3.0705   3.1730   3.5135   3.6105   3.6572   3.7315
     3.9918   4.1929   6.0546   6.1012   6.4985   6.5859   7.1433   7.1479
     7.3730   7.3782

          k = 1.0162 0.0000-0.2971 ( 36514 PWs)   bands (ev):

   -44.1326 -44.1326 -22.2458 -22.2458 -22.2330 -22.2330 -22.0584 -22.0584
    -6.7085  -6.7085  -6.0702  -6.0702  -5.9469  -5.9469  -5.3014  -5.3014
    -4.4869  -4.4869  -0.1969  -0.1969   0.7334   0.7334   0.9572   0.9572
     1.5242   1.5242   1.7952   1.7952   2.3539   2.3539   2.7398   2.7398
     2.9699   2.9699   3.1246   3.1246   3.6412   3.6412   3.7995   3.7995
     4.3532   4.3532   5.6429   5.6429   6.4545   6.4545   7.1648   7.1648
     7.4607   7.4607

          k = 1.2703 0.0645 0.0000 ( 36468 PWs)   bands (ev):

   -44.1330 -44.1330 -22.2479 -22.2479 -22.2232 -22.2232 -22.0595 -22.0595
    -6.9422  -6.7509  -6.6042  -6.5325  -5.7645  -5.4154  -5.2003  -5.1193
    -4.5626  -4.5007  -0.0294   0.0258   0.4293   0.9417   1.0404   1.2466
     1.5077   1.7132   2.0656   2.1079   2.2741   2.3768   2.4320   2.8579
     2.9243   3.1683   3.3577   3.4973   3.5105   3.5800   3.6423   3.7331
     3.9782   4.4631   5.9539   6.3406   6.4757   6.7181   6.9514   7.0831
     7.2562   7.5952

          k = 1.2703 0.0645 0.1485 ( 36490 PWs)   bands (ev):

   -44.1330 -44.1330 -22.2479 -22.2479 -22.2232 -22.2232 -22.0595 -22.0595
    -6.9203  -6.7886  -6.5897  -6.5414  -5.7100  -5.4636  -5.1909  -5.1319
    -4.5505  -4.5076  -0.0262   0.1964   0.3179   0.8865   0.9690   1.2002
     1.5460   1.6344   1.9042   2.2281   2.2658   2.5952   2.6667   2.8888
     2.9243   3.1225   3.1746   3.3467   3.4613   3.5528   3.7609   3.8269
     3.9663   4.5166   5.6785   6.4280   6.6108   6.7686   6.8950   7.0862
     7.1408   7.5229

          k = 1.2703 0.0645-0.2971 ( 36480 PWs)   bands (ev):

   -44.1330 -44.1330 -22.2479 -22.2479 -22.2232 -22.2232 -22.0595 -22.0595
    -6.8612  -6.8612  -6.5637  -6.5637  -5.5843  -5.5843  -5.1624  -5.1624
    -4.5267  -4.5267   0.1061   0.1061   0.5455   0.5455   1.0412   1.0412
     1.5795   1.5795   2.1017   2.1017   2.4819   2.4819   2.8214   2.8214
     3.0252   3.0252   3.1671   3.1671   3.5904   3.5904   3.8806   3.8806
     4.0848   4.0848   6.1301   6.1301   6.4593   6.4593   7.0939   7.0939
     7.3647   7.3647

          k =-0.5081-0.3869 0.0000 ( 36463 PWs)   bands (ev):

   -44.1339 -44.1339 -22.2527 -22.2527 -22.2000 -22.2000 -22.0623 -22.0622
    -7.4284  -7.1228  -6.8927  -6.7223  -6.0443  -5.2608  -5.0618  -4.6897
    -4.6077  -4.4528   0.3246   0.6036   0.6442   1.2145   1.2830   1.5467
     1.6527   1.7264   2.0098   2.0698   2.1816   2.3217   2.4425   3.2804
     3.4324   3.4780   3.5022   3.6515   3.6899   3.7340   3.8831   4.1027
     4.3735   5.0422   5.6028   5.9509   6.2031   6.7957   6.7999   6.8605
     7.3355   7.5081

          k =-0.5081-0.3869 0.1485 ( 36477 PWs)   bands (ev):

   -44.1339 -44.1339 -22.2527 -22.2527 -22.2000 -22.2000 -22.0623 -22.0622
    -7.3985  -7.1976  -6.8415  -6.7358  -5.9640  -5.4731  -4.9039  -4.6516
    -4.6437  -4.4716   0.3557   0.6352   0.7467   0.9698   1.2708   1.3740
     1.6053   1.6965   1.9978   2.0608   2.3454   2.5472   2.8265   3.2295
     3.4306   3.4620   3.5019   3.5644   3.6171   3.7333   3.8371   4.1149
     4.2170   4.5268   6.0975   6.2225   6.2790   6.6780   6.8017   6.8903
     7.1645   7.4873

          k =-0.5081-0.3869-0.2971 ( 36492 PWs)   bands (ev):

   -44.1339 -44.1339 -22.2527 -22.2527 -22.2000 -22.2000 -22.0623 -22.0623
    -7.3143  -7.3143  -6.7760  -6.7760  -5.7517  -5.7517  -4.7540  -4.7540
    -4.5436  -4.5436   0.4919   0.4919   1.0066   1.0066   1.0529   1.0529
     1.6306   1.6306   2.0233   2.0233   2.7624   2.7624   3.1351   3.1351
     3.3648   3.3648   3.4633   3.4633   3.6826   3.6826   3.8436   3.8436
     4.2238   4.2238   6.3296   6.3296   6.6796   6.6796   6.7920   6.7920
     7.1826   7.1826

          k =-0.2541-0.3224 0.0000 ( 36485 PWs)   bands (ev):

   -44.1348 -44.1348 -22.2574 -22.2574 -22.1766 -22.1766 -22.0651 -22.0650
    -7.7747  -7.4573  -7.0472  -6.8438  -6.2445  -5.3716  -4.9408  -4.7986
    -4.7137  -3.9857   0.4597   0.8942   1.0967   1.2081   1.3196   1.5339
     1.8010   1.8980   1.9455   2.4672   2.5433   3.2366   3.3500   3.5035
     3.6016   3.6632   3.7421   3.8195   3.9358   4.1428   4.1569   4.2652
     4.3251   4.6164   5.9802   6.0383   6.3392   6.5815   6.6948   6.7789
     6.9213   7.0320

          k =-0.2541-0.3224 0.1485 ( 36445 PWs)   bands (ev):

   -44.1348 -44.1348 -22.2574 -22.2574 -22.1766 -22.1766 -22.0651 -22.0650
    -7.7427  -7.5301  -6.9904  -6.8597  -6.1622  -5.6067  -4.8400  -4.7342
    -4.6403  -4.0748   0.5123   0.9334   0.9705   1.1670   1.2985   1.4386
     1.7881   2.0263   2.2876   2.4705   2.5310   2.9291   3.3922   3.4553
     3.5018   3.5444   3.6626   3.8941   3.9168   4.0866   4.2114   4.2675
     4.6973   4.8141   5.8307   6.0019   6.1566   6.3683   6.5658   6.7493
     7.1415   7.2625

          k =-0.2541-0.3224-0.2971 ( 36442 PWs)   bands (ev):

   -44.1348 -44.1348 -22.2574 -22.2574 -22.1766 -22.1766 -22.0650 -22.0650
    -7.6527  -7.6527  -6.9091  -6.9091  -5.9302  -5.9302  -4.7824  -4.7824
    -4.3177  -4.3177   0.6795   0.6795   1.1473   1.1473   1.2302   1.2302
     2.0708   2.0708   2.4480   2.4480   2.6627   2.6627   3.2441   3.2441
     3.4827   3.4827   3.7973   3.7973   4.0471   4.0471   4.2471   4.2471
     5.0404   5.0404   5.7094   5.7094   6.1549   6.1549   6.6086   6.6086
     7.3638   7.3638

          k = 0.0000-0.2579 0.0000 ( 36445 PWs)   bands (ev):

   -44.1352 -44.1352 -22.2594 -22.2594 -22.1669 -22.1669 -22.0663 -22.0661
    -7.8978  -7.5726  -7.1166  -6.8887  -6.3027  -5.4183  -4.9194  -4.8391
    -4.7588  -3.8283   0.3778   0.7672   0.9315   1.1853   1.4660   1.6244
     2.2176   2.3201   2.4711   2.7756   2.9406   3.0326   3.3142   3.4147
     3.4639   3.6478   3.7815   3.9570   4.1555   4.1899   4.2655   4.6826
     4.7810   5.3945   5.7158   5.8933   5.9244   6.0593   6.2503   6.7927
     7.0011   7.1629

          k = 0.0000-0.2579 0.1485 ( 36452 PWs)   bands (ev):

   -44.1352 -44.1352 -22.2594 -22.2594 -22.1669 -22.1669 -22.0662 -22.0661
    -7.8651  -7.6471  -7.0532  -6.9060  -6.2233  -5.6606  -4.8588  -4.7772
    -4.6200  -3.9416   0.4430   0.9252   0.9597   1.0510   1.1550   1.9225
     2.1099   2.2433   2.4133   2.8208   2.9277   3.1165   3.3149   3.4087
     3.6354   3.6609   3.8448   3.9106   4.1829   4.1907   4.2220   4.6823
     4.7348   4.9555   5.8680   6.0020   6.0398   6.0700   6.5268   6.6125
     6.8239   7.1149

          k = 0.0000-0.2579-0.2971 ( 36454 PWs)   bands (ev):

   -44.1352 -44.1352 -22.2594 -22.2594 -22.1669 -22.1669 -22.0662 -22.0662
    -7.7728  -7.7728  -6.9611  -6.9611  -5.9924  -5.9924  -4.8166  -4.8166
    -4.2386  -4.2386   0.6649   0.6649   1.0429   1.0429   1.3770   1.3770
     2.3156   2.3156   2.6643   2.6643   2.8870   2.8870   3.3910   3.3910
     3.7753   3.7753   4.0101   4.0101   4.1188   4.1188   4.3825   4.3825
     4.6914   4.6914   5.9609   5.9609   6.2731   6.2731   6.4475   6.4475
     6.9300   6.9300

          k = 1.5243 0.0000 0.0000 ( 36439 PWs)   bands (ev):

   -44.1339 -44.1339 -22.2527 -22.2527 -22.2000 -22.2000 -22.0623 -22.0622
    -7.4244  -7.1222  -6.8929  -6.7250  -6.0480  -5.2608  -5.0647  -4.6914
    -4.6048  -4.4533   0.3197   0.6167   0.6314   1.2186   1.2997   1.6019
     1.6804   1.6870   2.0263   2.0657   2.2304   2.2847   2.4385   3.2372
     3.4301   3.4460   3.5102   3.7001   3.7024   3.7276   3.7760   4.1224
     4.3677   5.0436   5.5993   5.9128   6.2336   6.7595   6.8519   6.9175
     7.2908   7.5433

          k = 1.5243 0.0000 0.1485 ( 36476 PWs)   bands (ev):

   -44.1339 -44.1339 -22.2527 -22.2527 -22.2000 -22.2000 -22.0623 -22.0622
    -7.3947  -7.1956  -6.8434  -6.7388  -5.9666  -5.4733  -4.9079  -4.6506
    -4.6439  -4.4705   0.3533   0.6406   0.7429   0.9667   1.2777   1.3788
     1.6652   1.7178   1.9988   2.0408   2.3579   2.5462   2.8301   3.1893
     3.3915   3.4668   3.4864   3.5840   3.6440   3.7223   3.7953   4.1523
     4.1574   4.5321   6.0719   6.2362   6.2730   6.6481   6.8425   6.9591
     7.1177   7.5020

          k = 1.5243 0.0000-0.2971 ( 36508 PWs)   bands (ev):

   -44.1339 -44.1339 -22.2527 -22.2527 -22.2000 -22.2000 -22.0623 -22.0623
    -7.3111  -7.3111  -6.7792  -6.7792  -5.7526  -5.7526  -4.7574  -4.7574
    -4.5413  -4.5413   0.4937   0.4937   1.0043   1.0043   1.0501   1.0501
     1.6862   1.6862   2.0052   2.0052   2.7836   2.7836   3.0964   3.0964
     3.3649   3.3649   3.4542   3.4542   3.6806   3.6806   3.8400   3.8400
     4.2076   4.2076   6.3158   6.3158   6.6771   6.6771   6.8012   6.8012
     7.1990   7.1990

          k =-0.2541-0.4514 0.0000 ( 36444 PWs)   bands (ev):

   -44.1348 -44.1348 -22.2574 -22.2574 -22.1766 -22.1766 -22.0651 -22.0650
    -7.7683  -7.4563  -7.0429  -6.8479  -6.2580  -5.3735  -4.9502  -4.7983
    -4.7085  -3.9867   0.4707   0.9035   1.2006   1.2173   1.3360   1.6186
     1.8281   1.9319   1.9467   2.3885   2.4698   3.2264   3.3604   3.4331
     3.4909   3.7063   3.7552   3.8109   3.8626   4.1044   4.1134   4.2011
     4.3185   4.6265   6.0529   6.0536   6.3673   6.5835   6.7351   6.8043
     6.8325   7.0081

          k =-0.2541-0.4514 0.1485 ( 36461 PWs)   bands (ev):

   -44.1348 -44.1348 -22.2574 -22.2574 -22.1766 -22.1766 -22.0651 -22.0650
    -7.7366  -7.5269  -6.9899  -6.8641  -6.1727  -5.6090  -4.8524  -4.7314
    -4.6356  -4.0748   0.5218   0.9455   0.9741   1.2939   1.3475   1.4687
     1.8139   2.0279   2.3333   2.3959   2.4532   2.9356   3.3271   3.3632
     3.4692   3.5559   3.7289   3.8492   3.8872   3.9640   4.2002   4.2370
     4.7362   4.7828   5.8251   6.0257   6.1636   6.3598   6.6329   6.7408
     7.1295   7.2480

          k =-0.2541-0.4514-0.2971 ( 36490 PWs)   bands (ev):

   -44.1348 -44.1348 -22.2574 -22.2574 -22.1766 -22.1766 -22.0650 -22.0650
    -7.6475  -7.6475  -6.9127  -6.9127  -5.9356  -5.9356  -4.7870  -4.7870
    -4.3156  -4.3156   0.6863   0.6863   1.1615   1.1615   1.3309   1.3309
     2.0798   2.0798   2.3990   2.3990   2.6619   2.6619   3.2430   3.2430
     3.3756   3.3756   3.8332   3.8332   3.9817   3.9817   4.2167   4.2167
     5.0528   5.0528   5.6856   5.6856   6.1389   6.1389   6.6655   6.6655
     7.3533   7.3533

          k = 0.0000-0.3869 0.0000 ( 36477 PWs)   bands (ev):

   -44.1352 -44.1352 -22.2594 -22.2594 -22.1669 -22.1669 -22.0663 -22.0661
    -7.8897  -7.5712  -7.1085  -6.8941  -6.3235  -5.4221  -4.9361  -4.8353
    -4.7513  -3.8296   0.4008   0.7788   1.0821   1.2471   1.4905   1.6949
     2.2190   2.3229   2.4692   2.7947   2.9429   3.0667   3.1293   3.1750
     3.5683   3.5766   3.7538   3.9491   4.0005   4.0256   4.2657   4.6817
     4.7542   5.3684   5.7722   5.9120   5.9914   6.1069   6.3088   6.7165
     7.0012   7.1270

          k = 0.0000-0.3869 0.1485 ( 36452 PWs)   bands (ev):

   -44.1352 -44.1352 -22.2594 -22.2594 -22.1669 -22.1669 -22.0662 -22.0661
    -7.8573  -7.6431  -7.0503  -6.9113  -6.2400  -5.6651  -4.8750  -4.7727
    -4.6151  -3.9418   0.4620   0.9505   1.0215   1.1644   1.2340   1.9397
     2.1512   2.2448   2.4133   2.8358   2.9317   3.0271   3.1261   3.3317
     3.5484   3.7040   3.8192   3.9162   4.0493   4.0719   4.1829   4.6810
     4.7186   4.9532   5.9151   6.0418   6.0673   6.0836   6.5449   6.5677
     6.8262   7.0796

          k = 0.0000-0.3869-0.2971 ( 36454 PWs)   bands (ev):

   -44.1352 -44.1352 -22.2594 -22.2594 -22.1669 -22.1669 -22.0662 -22.0662
    -7.7662  -7.7662  -6.9644  -6.9644  -6.0016  -6.0016  -4.8221  -4.8221
    -4.2365  -4.2365   0.6815   0.6815   1.1705   1.1705   1.3952   1.3952
     2.3168   2.3168   2.6781   2.6781   2.8958   2.8958   3.1707   3.1707
     3.8139   3.8139   3.9909   3.9909   4.0009   4.0009   4.3583   4.3583
     4.6867   4.6867   5.9615   5.9615   6.3010   6.3010   6.4545   6.4545
     6.8996   6.8996

          k =-2.0325 0.0000 0.0000 ( 36452 PWs)   bands (ev):

   -44.1352 -44.1352 -22.2594 -22.2594 -22.1669 -22.1669 -22.0663 -22.0661
    -7.8863  -7.5707  -7.1054  -6.8958  -6.3324  -5.4237  -4.9428  -4.8329
    -4.7492  -3.8302   0.4065   0.7839   1.2036   1.2264   1.5001   1.7379
     2.2196   2.3250   2.4684   2.8031   2.9436   3.0049   3.0584   3.0862
     3.5767   3.7033   3.7422   3.8521   3.9476   3.9667   4.2657   4.6813
     4.7432   5.3605   5.7953   5.9198   6.0269   6.1217   6.3271   6.6685
     7.0012   7.1208

          k =-2.0325 0.0000 0.1485 ( 36456 PWs)   bands (ev):

   -44.1352 -44.1352 -22.2594 -22.2594 -22.1669 -22.1669 -22.0662 -22.0661
    -7.8540  -7.6414  -7.0493  -6.9133  -6.2470  -5.6669  -4.8812  -4.7713
    -4.6132  -3.9419   0.4661   0.9597   1.0393   1.2338   1.2775   1.9477
     2.1711   2.2454   2.4133   2.8424   2.9333   2.9402   3.0074   3.3413
     3.5265   3.7822   3.8084   3.9239   3.9553   4.0064   4.1794   4.6805
     4.7120   4.9531   5.9393   6.0585   6.0697   6.0893   6.5377   6.5517
     6.8272   7.0690

          k =-2.0325 0.0000-0.2971 ( 36460 PWs)   bands (ev):

   -44.1352 -44.1352 -22.2594 -22.2594 -22.1669 -22.1669 -22.0662 -22.0662
    -7.7635  -7.7635  -6.9658  -6.9658  -6.0053  -6.0053  -4.8244  -4.8244
    -4.2357  -4.2357   0.6847   0.6847   1.2386   1.2386   1.4032   1.4032
     2.3174   2.3174   2.6708   2.6708   2.8996   2.8996   3.0750   3.0750
     3.8668   3.8668   3.9266   3.9266   3.9828   3.9828   4.3496   4.3496
     4.6848   4.6848   5.9580   5.9580   6.3105   6.3105   6.4575   6.4575
     6.8857   6.8857

     the Fermi energy is     5.5177 ev

!    total energy              =   -4240.95377645 Ry

     total all-electron energy =   -150287.647471 Ry
     estimated scf accuracy    <          4.1E-12 Ry
     smearing contrib. (-TS)   =       0.00000565 Ry
     internal energy E=F+TS    =   -4240.95378210 Ry

     The total energy is F=E-TS. E is the sum of the following terms:
     one-electron contribution =    -167.15124814 Ry
     hartree contribution      =     117.05105093 Ry
     xc contribution           =    -201.51474220 Ry
     ewald contribution        =    -221.81651423 Ry
     one-center paw contrib.   =   -3767.52232846 Ry

     convergence has been achieved in  18 iterations

     Forces acting on atoms (cartesian axes, Ry/au):

     atom    1 type  1   force =     0.00000000    0.00233599    0.00000000
     atom    2 type  1   force =     0.00000000   -0.00233599    0.00000000
     atom    3 type  2   force =     0.00000000    0.00005479    0.00000000
     atom    4 type  2   force =     0.00000000   -0.00005479    0.00000000
     atom    5 type  2   force =    -0.00000000   -0.00053292   -0.00008776
     atom    6 type  2   force =     0.00000000    0.00053292    0.00008776
     atom    7 type  2   force =     0.00000000   -0.00053292    0.00008776
     atom    8 type  2   force =     0.00000000    0.00053292   -0.00008776
     atom    9 type  2   force =     0.00000000   -0.00369814   -0.00394870
     atom   10 type  2   force =     0.00000000    0.00369814    0.00394870
     atom   11 type  2   force =     0.00000000   -0.00369814    0.00394870
     atom   12 type  2   force =     0.00000000    0.00369814   -0.00394870

     Total force =     0.011365     Total SCF correction =     0.000002


     Computing stress (Cartesian axis) and pressure

          total   stress  (Ry/bohr**3)                   (kbar)     P=        0.87
   0.00000542   0.00000000   0.00000000            0.80        0.00        0.00
   0.00000000   0.00000442   0.00000000            0.00        0.65        0.00
   0.00000000   0.00000000   0.00000800            0.00        0.00        1.18

 
     init_run     :     18.48s CPU     18.98s WALL (       1 calls)
     electrons    :    927.36s CPU    938.27s WALL (       1 calls)
     forces       :      6.84s CPU      7.05s WALL (       1 calls)
     stress       :     43.57s CPU     44.16s WALL (       1 calls)

     Called by init_run:
     wfcinit      :     13.92s CPU     14.10s WALL (       1 calls)
     potinit      :      1.49s CPU      1.53s WALL (       1 calls)
     hinit0       :      1.69s CPU      1.73s WALL (       1 calls)

     Called by electrons:
     c_bands      :    770.41s CPU    773.73s WALL (      19 calls)
     sum_band     :    130.61s CPU    134.68s WALL (      19 calls)
     v_of_rho     :      5.66s CPU      5.95s WALL (      19 calls)
     newd         :     14.65s CPU     18.04s WALL (      19 calls)
     PAW_pot      :      6.19s CPU      6.19s WALL (      19 calls)
     mix_rho      :      0.85s CPU      0.88s WALL (      19 calls)

     Called by c_bands:
     init_us_2    :     11.58s CPU     11.63s WALL (    2583 calls)
     cegterg      :    691.51s CPU    694.30s WALL (    1197 calls)

     Called by *egterg:
     cdiaghg      :     27.51s CPU     27.58s WALL (    8159 calls)
     h_psi        :    526.64s CPU    529.28s WALL (    8285 calls)
     s_psi        :     45.21s CPU     45.30s WALL (    8285 calls)
     g_psi        :      1.92s CPU      1.93s WALL (    7025 calls)

     Called by h_psi:
     h_psi:calbec :     38.46s CPU     38.54s WALL (    8285 calls)
     vloc_psi     :    439.97s CPU    442.36s WALL (    8285 calls)
     add_vuspsi   :     45.04s CPU     45.11s WALL (    8285 calls)

     General routines
     calbec       :     50.73s CPU     50.85s WALL (    9797 calls)
     fft          :      3.32s CPU      3.44s WALL (     271 calls)
     ffts         :      0.08s CPU      0.08s WALL (      38 calls)
     fftw         :    404.48s CPU    406.63s WALL (  423708 calls)
     interpolate  :      0.31s CPU      0.31s WALL (      19 calls)
 
     Parallel routines
 
     PWSCF        :  16m36.50s CPU  16m48.79s WALL

 
   This run was terminated on:  15:31:20  19Nov2021            

=------------------------------------------------------------------------------=
   JOB DONE.
=------------------------------------------------------------------------------=
