
     Program PWSCF v.6.8 starts on 19Nov2021 at 15:15: 1 

     This program is part of the open-source Quantum ESPRESSO suite
     for quantum simulation of materials; please cite
         "P. Giannozzi et al., J. Phys.:Condens. Matter 21 395502 (2009);
         "P. Giannozzi et al., J. Phys.:Condens. Matter 29 465901 (2017);
         "P. Giannozzi et al., J. Chem. Phys. 152 154105 (2020);
          URL http://www.quantum-espresso.org", 
     in publications or presentations arising from this work. More details at
     http://www.quantum-espresso.org/quote

     Parallel version (MPI), running on    10 processors

     MPI processes distributed on     1 nodes
     R & G space division:  proc/nbgrp/npool/nimage =      10
     70977 MiB available memory on the printing compute node when the environment starts
 
     Waiting for input...
     Reading input from standard input

     Current dimensions of program PWSCF are:
     Max number of different atomic species (ntypx) = 10
     Max number of k-points (npk) =  40000
     Max angular momentum in pseudopotentials (lmaxx) =  4
     file Zr.pbe-spn-kjpaw_psl.1.0.0.UPF: wavefunction(s)  4S 4P renormalized
     file Te.pbe-n-kjpaw_psl.1.0.0.UPF: wavefunction(s)  5S 5P renormalized
     Message from routine setup:
     using ibrav=0 with symmetry is DISCOURAGED, use correct ibrav instead

     Subspace diagonalization in iterative solution of the eigenvalue problem:
     a serial algorithm will be used

 
     Parallelization info
     --------------------
     sticks:   dense  smooth     PW     G-vecs:    dense   smooth      PW
     Min         734     293     87               115340    29174    4753
     Max         735     295     88               115345    29176    4760
     Sum        7345    2937    873              1153415   291749   47557
 
     Using Slab Decomposition
 


     bravais-lattice index     =            0
     lattice parameter (alat)  =      15.5510  a.u.
     unit-cell volume          =    3018.5011 (a.u.)^3
     number of atoms/cell      =           12
     number of atomic types    =            2
     number of electrons       =        84.00
     number of Kohn-Sham states=           50
     kinetic-energy cutoff     =      80.0000  Ry
     charge density cutoff     =     800.0000  Ry
     scf convergence threshold =      1.0E-10
     mixing beta               =       0.7000
     number of iterations used =            8  plain     mixing
     Exchange-correlation= SLA  PW   PBX  PBC
                           (   1   4   3   4   0   0   0)

     celldm(1)=  15.551040  celldm(2)=   0.000000  celldm(3)=   0.000000
     celldm(4)=   0.000000  celldm(5)=   0.000000  celldm(6)=   0.000000

     crystal axes: (cart. coord. in units of alat)
               a(1) = (   0.246007  -0.969268   0.000000 )  
               a(2) = (   0.246007   0.969268   0.000000 )  
               a(3) = (   0.000000   0.000000   1.683031 )  

     reciprocal axes: (cart. coord. in units 2 pi/alat)
               b(1) = (  2.032465 -0.515853  0.000000 )  
               b(2) = (  2.032465  0.515853  0.000000 )  
               b(3) = (  0.000000  0.000000  0.594166 )  


     PseudoPot. # 1 for Zr read from file:
     pseudo/Zr.pbe-spn-kjpaw_psl.1.0.0.UPF
     MD5 check sum: 02112c41713a0468aff2bb39ef194e36
     Pseudo is Projector augmented-wave + core cor, Zval = 12.0
     Generated using &quot;atomic&quot; code by A. Dal Corso  v.6.2.2
     Shape of augmentation charge: PSQ
     Using radial grid of 1225 points,  6 beta functions with: 
                l(1) =   0
                l(2) =   0
                l(3) =   1
                l(4) =   1
                l(5) =   2
                l(6) =   2
     Q(r) pseudized with 0 coefficients 


     PseudoPot. # 2 for Te read from file:
     pseudo/Te.pbe-n-kjpaw_psl.1.0.0.UPF
     MD5 check sum: 66247bff2bd9dbf220fbb0bf5ab56e9d
     Pseudo is Projector augmented-wave + core cor, Zval =  6.0
     Generated using &quot;atomic&quot; code by A. Dal Corso  v.6.3
     Shape of augmentation charge: PSQ
     Using radial grid of 1245 points,  6 beta functions with: 
                l(1) =   0
                l(2) =   0
                l(3) =   1
                l(4) =   1
                l(5) =   2
                l(6) =   2
     Q(r) pseudized with 0 coefficients 


     atomic species   valence    mass     pseudopotential
        Zr            12.00    91.22000     Zr( 1.00)
        Te             6.00   127.60000     Te( 1.00)

      8 Sym. Ops., with inversion, found ( 4 have fractional translation)



   Cartesian axes

     site n.     atom                  positions (alat units)
         1           Zr  tau(   1) = (   0.0000000   0.6039322   0.4207578  )
         2           Zr  tau(   2) = (   0.2460067   0.3653360   1.2622733  )
         3           Te  tau(   3) = (   0.2460067   0.3342147   0.4207578  )
         4           Te  tau(   4) = (   0.0000000   0.6350534   1.2622733  )
         5           Te  tau(   5) = (   0.2460067   0.8105884   0.2525839  )
         6           Te  tau(   6) = (   0.0000000   0.1586798   1.4304472  )
         7           Te  tau(   7) = (   0.2460067   0.8105884   0.5889316  )
         8           Te  tau(   8) = (   0.0000000   0.1586798   1.0940994  )
         9           Te  tau(   9) = (   0.0000000   0.4178267   0.7336825  )
        10           Te  tau(  10) = (   0.2460067   0.5514414   0.9493486  )
        11           Te  tau(  11) = (   0.0000000   0.4178267   0.1078331  )
        12           Te  tau(  12) = (   0.2460067   0.5514414   1.5751980  )

     number of k points=    63  Methfessel-Paxton smearing, width (Ry)=  0.0030
                       cart. coord. in units 2pi/alat
        k(    1) = (   0.0000000   0.0000000   0.0000000), wk =   0.0078125
        k(    2) = (   0.0000000   0.0000000   0.1485415), wk =   0.0156250
        k(    3) = (   0.0000000   0.0000000  -0.2970830), wk =   0.0078125
        k(    4) = (   0.2540581   0.0644816   0.0000000), wk =   0.0312500
        k(    5) = (   0.2540581   0.0644816   0.1485415), wk =   0.0625000
        k(    6) = (   0.2540581   0.0644816  -0.2970830), wk =   0.0312500
        k(    7) = (   0.5081162   0.1289633   0.0000000), wk =   0.0312500
        k(    8) = (   0.5081162   0.1289633   0.1485415), wk =   0.0625000
        k(    9) = (   0.5081162   0.1289633  -0.2970830), wk =   0.0312500
        k(   10) = (   0.7621743   0.1934449   0.0000000), wk =   0.0312500
        k(   11) = (   0.7621743   0.1934449   0.1485415), wk =   0.0625000
        k(   12) = (   0.7621743   0.1934449  -0.2970830), wk =   0.0312500
        k(   13) = (  -1.0162324  -0.2579266   0.0000000), wk =   0.0156250
        k(   14) = (  -1.0162324  -0.2579266   0.1485415), wk =   0.0312500
        k(   15) = (  -1.0162324  -0.2579266  -0.2970830), wk =   0.0156250
        k(   16) = (   0.5081162   0.0000000   0.0000000), wk =   0.0156250
        k(   17) = (   0.5081162   0.0000000   0.1485415), wk =   0.0312500
        k(   18) = (   0.5081162   0.0000000  -0.2970830), wk =   0.0156250
        k(   19) = (   0.7621743   0.0644816   0.0000000), wk =   0.0312500
        k(   20) = (   0.7621743   0.0644816   0.1485415), wk =   0.0625000
        k(   21) = (   0.7621743   0.0644816  -0.2970830), wk =   0.0312500
        k(   22) = (   1.0162324   0.1289633   0.0000000), wk =   0.0312500
        k(   23) = (   1.0162324   0.1289633   0.1485415), wk =   0.0625000
        k(   24) = (   1.0162324   0.1289633  -0.2970830), wk =   0.0312500
        k(   25) = (  -0.7621743  -0.3224082   0.0000000), wk =   0.0312500
        k(   26) = (  -0.7621743  -0.3224082   0.1485415), wk =   0.0625000
        k(   27) = (  -0.7621743  -0.3224082  -0.2970830), wk =   0.0312500
        k(   28) = (  -0.5081162  -0.2579266   0.0000000), wk =   0.0312500
        k(   29) = (  -0.5081162  -0.2579266   0.1485415), wk =   0.0625000
        k(   30) = (  -0.5081162  -0.2579266  -0.2970830), wk =   0.0312500
        k(   31) = (  -0.2540581  -0.1934449   0.0000000), wk =   0.0312500
        k(   32) = (  -0.2540581  -0.1934449   0.1485415), wk =   0.0625000
        k(   33) = (  -0.2540581  -0.1934449  -0.2970830), wk =   0.0312500
        k(   34) = (   0.0000000  -0.1289633   0.0000000), wk =   0.0156250
        k(   35) = (   0.0000000  -0.1289633   0.1485415), wk =   0.0312500
        k(   36) = (   0.0000000  -0.1289633  -0.2970830), wk =   0.0156250
        k(   37) = (   1.0162324   0.0000000   0.0000000), wk =   0.0156250
        k(   38) = (   1.0162324   0.0000000   0.1485415), wk =   0.0312500
        k(   39) = (   1.0162324   0.0000000  -0.2970830), wk =   0.0156250
        k(   40) = (   1.2702905   0.0644816   0.0000000), wk =   0.0312500
        k(   41) = (   1.2702905   0.0644816   0.1485415), wk =   0.0625000
        k(   42) = (   1.2702905   0.0644816  -0.2970830), wk =   0.0312500
        k(   43) = (  -0.5081162  -0.3868899   0.0000000), wk =   0.0312500
        k(   44) = (  -0.5081162  -0.3868899   0.1485415), wk =   0.0625000
        k(   45) = (  -0.5081162  -0.3868899  -0.2970830), wk =   0.0312500
        k(   46) = (  -0.2540581  -0.3224082   0.0000000), wk =   0.0312500
        k(   47) = (  -0.2540581  -0.3224082   0.1485415), wk =   0.0625000
        k(   48) = (  -0.2540581  -0.3224082  -0.2970830), wk =   0.0312500
        k(   49) = (   0.0000000  -0.2579266   0.0000000), wk =   0.0156250
        k(   50) = (   0.0000000  -0.2579266   0.1485415), wk =   0.0312500
        k(   51) = (   0.0000000  -0.2579266  -0.2970830), wk =   0.0156250
        k(   52) = (   1.5243485   0.0000000   0.0000000), wk =   0.0156250
        k(   53) = (   1.5243485   0.0000000   0.1485415), wk =   0.0312500
        k(   54) = (   1.5243485   0.0000000  -0.2970830), wk =   0.0156250
        k(   55) = (  -0.2540581  -0.4513715   0.0000000), wk =   0.0312500
        k(   56) = (  -0.2540581  -0.4513715   0.1485415), wk =   0.0625000
        k(   57) = (  -0.2540581  -0.4513715  -0.2970830), wk =   0.0312500
        k(   58) = (   0.0000000  -0.3868899   0.0000000), wk =   0.0156250
        k(   59) = (   0.0000000  -0.3868899   0.1485415), wk =   0.0312500
        k(   60) = (   0.0000000  -0.3868899  -0.2970830), wk =   0.0156250
        k(   61) = (  -2.0324647   0.0000000   0.0000000), wk =   0.0078125
        k(   62) = (  -2.0324647   0.0000000   0.1485415), wk =   0.0156250
        k(   63) = (  -2.0324647   0.0000000  -0.2970830), wk =   0.0078125

     Dense  grid:  1153415 G-vectors     FFT dimensions: ( 144, 144, 240)

     Smooth grid:   291749 G-vectors     FFT dimensions: (  90,  90, 150)

     Estimated max dynamical RAM per process >     657.19 MB

     Estimated total dynamical RAM >       6.42 GB

     Initial potential from superposition of free atoms

     starting charge   83.99353, renormalised to   84.00000
     Starting wfcs are   66 randomized atomic wfcs
     Checking if some PAW data can be deallocated... 

     total cpu time spent up to now is       18.9 secs

     Self-consistent Calculation

     iteration #  1     ecut=    80.00 Ry     beta= 0.70
     Davidson diagonalization with overlap
     ethr =  1.00E-02,  avg # of iterations =  2.1

     Threshold (ethr) on eigenvalues was too large:
     Diagonalizing with lowered threshold

     Davidson diagonalization with overlap
     ethr =  4.28E-04,  avg # of iterations =  4.0

     total cpu time spent up to now is      100.3 secs

     total energy              =   -4240.72852131 Ry
     estimated scf accuracy    <       0.43825699 Ry

     iteration #  2     ecut=    80.00 Ry     beta= 0.70
     Davidson diagonalization with overlap
     ethr =  5.22E-04,  avg # of iterations =  7.8

     total cpu time spent up to now is      160.4 secs

     total energy              =   -4240.63612323 Ry
     estimated scf accuracy    <       2.02841210 Ry

     iteration #  3     ecut=    80.00 Ry     beta= 0.70
     Davidson diagonalization with overlap
     ethr =  5.22E-04,  avg # of iterations =  5.4

     total cpu time spent up to now is      210.8 secs

     total energy              =   -4240.93841215 Ry
     estimated scf accuracy    <       0.00869981 Ry

     iteration #  4     ecut=    80.00 Ry     beta= 0.70
     Davidson diagonalization with overlap
     c_bands:  1 eigenvalues not converged
     c_bands:  2 eigenvalues not converged
     c_bands:  1 eigenvalues not converged
     c_bands:  2 eigenvalues not converged
     c_bands:  1 eigenvalues not converged
     c_bands:  1 eigenvalues not converged
     c_bands:  1 eigenvalues not converged
     c_bands:  1 eigenvalues not converged
     c_bands:  1 eigenvalues not converged
     c_bands:  2 eigenvalues not converged
     c_bands:  3 eigenvalues not converged
     c_bands:  1 eigenvalues not converged
     c_bands:  1 eigenvalues not converged
     c_bands:  1 eigenvalues not converged
     c_bands:  1 eigenvalues not converged
     c_bands:  1 eigenvalues not converged
     ethr =  1.04E-05,  avg # of iterations = 17.7

     total cpu time spent up to now is      307.8 secs

     total energy              =   -4240.94901838 Ry
     estimated scf accuracy    <       0.04991252 Ry

     iteration #  5     ecut=    80.00 Ry     beta= 0.70
     Davidson diagonalization with overlap
     ethr =  1.04E-05,  avg # of iterations =  7.2

     total cpu time spent up to now is      359.1 secs

     total energy              =   -4240.95086016 Ry
     estimated scf accuracy    <       0.00881677 Ry

     iteration #  6     ecut=    80.00 Ry     beta= 0.70
     Davidson diagonalization with overlap
     ethr =  1.04E-05,  avg # of iterations =  2.9

     total cpu time spent up to now is      399.2 secs

     total energy              =   -4240.95157985 Ry
     estimated scf accuracy    <       0.00111181 Ry

     iteration #  7     ecut=    80.00 Ry     beta= 0.70
     Davidson diagonalization with overlap
     ethr =  1.32E-06,  avg # of iterations = 10.8

     total cpu time spent up to now is      465.7 secs

     total energy              =   -4240.95215423 Ry
     estimated scf accuracy    <       0.00135695 Ry

     iteration #  8     ecut=    80.00 Ry     beta= 0.70
     Davidson diagonalization with overlap
     ethr =  1.32E-06,  avg # of iterations =  2.2

     total cpu time spent up to now is      502.6 secs

     total energy              =   -4240.95219098 Ry
     estimated scf accuracy    <       0.00020312 Ry

     iteration #  9     ecut=    80.00 Ry     beta= 0.70
     Davidson diagonalization with overlap
     ethr =  2.42E-07,  avg # of iterations =  6.3

     total cpu time spent up to now is      551.6 secs

     total energy              =   -4240.95225578 Ry
     estimated scf accuracy    <       0.00002412 Ry

     iteration # 10     ecut=    80.00 Ry     beta= 0.70
     Davidson diagonalization with overlap
     ethr =  2.87E-08,  avg # of iterations =  3.3

     total cpu time spent up to now is      591.3 secs

     total energy              =   -4240.95225798 Ry
     estimated scf accuracy    <       0.00000446 Ry

     iteration # 11     ecut=    80.00 Ry     beta= 0.70
     Davidson diagonalization with overlap
     ethr =  5.31E-09,  avg # of iterations =  6.3

     total cpu time spent up to now is      642.0 secs

     total energy              =   -4240.95226007 Ry
     estimated scf accuracy    <       0.00000100 Ry

     iteration # 12     ecut=    80.00 Ry     beta= 0.70
     Davidson diagonalization with overlap
     ethr =  1.20E-09,  avg # of iterations =  2.7

     total cpu time spent up to now is      680.2 secs

     total energy              =   -4240.95226015 Ry
     estimated scf accuracy    <       0.00000010 Ry

     iteration # 13     ecut=    80.00 Ry     beta= 0.70
     Davidson diagonalization with overlap
     ethr =  1.24E-10,  avg # of iterations =  7.7

     total cpu time spent up to now is      736.8 secs

     total energy              =   -4240.95226022 Ry
     estimated scf accuracy    <       0.00000006 Ry

     iteration # 14     ecut=    80.00 Ry     beta= 0.70
     Davidson diagonalization with overlap
     ethr =  6.55E-11,  avg # of iterations =  1.7

     total cpu time spent up to now is      772.7 secs

     total energy              =   -4240.95226022 Ry
     estimated scf accuracy    <       0.00000002 Ry

     iteration # 15     ecut=    80.00 Ry     beta= 0.70
     Davidson diagonalization with overlap
     ethr =  2.57E-11,  avg # of iterations =  5.6

     total cpu time spent up to now is      818.6 secs

     total energy              =   -4240.95226022 Ry
     estimated scf accuracy    <          1.4E-09 Ry

     iteration # 16     ecut=    80.00 Ry     beta= 0.70
     Davidson diagonalization with overlap
     ethr =  1.66E-12,  avg # of iterations =  5.9

     total cpu time spent up to now is      865.6 secs

     total energy              =   -4240.95226022 Ry
     estimated scf accuracy    <          8.5E-10 Ry

     iteration # 17     ecut=    80.00 Ry     beta= 0.70
     Davidson diagonalization with overlap
     ethr =  1.01E-12,  avg # of iterations =  4.1

     total cpu time spent up to now is      906.9 secs

     End of self-consistent calculation

          k = 0.0000 0.0000 0.0000 ( 36359 PWs)   bands (ev):

   -44.1371 -44.1371 -22.2589 -22.2588 -22.1673 -22.1673 -22.0693 -22.0692
    -7.9728  -7.6753  -7.1286  -6.8987  -6.2317  -5.4145  -4.8560  -4.8215
    -4.7713  -3.8152   0.3011   0.7579   0.7926   1.1349   1.3980   1.5352
     2.1444   2.3019   2.3605   2.7659   2.9279   3.0048   3.2978   3.3570
     3.7497   3.8497   4.0155   4.0786   4.2872   4.3395   4.3910   4.6960
     4.7852   5.4424   5.6387   5.8592   5.9110   5.9173   6.0639   6.8063
     7.0197   7.2747

          k = 0.0000 0.0000 0.1485 ( 36415 PWs)   bands (ev):

   -44.1371 -44.1371 -22.2589 -22.2588 -22.1673 -22.1673 -22.0693 -22.0692
    -7.9415  -7.7396  -7.0698  -6.9173  -6.1604  -5.6388  -4.8169  -4.7792
    -4.6038  -3.9289   0.3726   0.8252   0.9052   0.9823   1.0919   1.8894
     2.0401   2.1677   2.3155   2.8037   2.9128   3.0942   3.4034   3.4152
     3.7351   3.9068   3.9917   4.0850   4.2202   4.3648   4.4058   4.6944
     4.7407   4.9507   5.8293   5.9169   5.9190   6.0839   6.4296   6.6284
     6.8372   7.1656

          k = 0.0000 0.0000-0.2971 ( 36410 PWs)   bands (ev):

   -44.1371 -44.1371 -22.2588 -22.2588 -22.1673 -22.1673 -22.0693 -22.0693
    -7.8545  -7.8545  -6.9762  -6.9762  -5.9494  -5.9494  -4.7980  -4.7980
    -4.2253  -4.2253   0.5952   0.5952   0.9449   0.9449   1.3477   1.3477
     2.2323   2.2323   2.6113   2.6113   2.8682   2.8682   3.5405   3.5405
     3.9103   3.9103   4.0565   4.0565   4.3374   4.3374   4.4010   4.4010
     4.7003   4.7003   5.9099   5.9099   6.2250   6.2250   6.4579   6.4579
     6.9115   6.9115

          k = 0.2541 0.0645 0.0000 ( 36396 PWs)   bands (ev):

   -44.1367 -44.1367 -22.2569 -22.2569 -22.1770 -22.1770 -22.0682 -22.0681
    -7.8521  -7.5586  -7.0603  -6.8504  -6.1707  -5.3678  -4.8844  -4.7776
    -4.7267  -3.9771   0.3857   0.8791   0.9196   1.1587   1.2494   1.4492
     1.6824   1.8217   1.8550   2.5769   2.6027   3.2096   3.2690   3.7210
     3.7589   3.7685   3.8450   3.8472   4.0439   4.2502   4.3124   4.3455
     4.4869   4.5659   5.8593   5.9783   6.1965   6.5601   6.6111   6.6823
     7.0231   7.1958

          k = 0.2541 0.0645 0.1485 ( 36423 PWs)   bands (ev):

   -44.1367 -44.1367 -22.2569 -22.2569 -22.1770 -22.1770 -22.0682 -22.0681
    -7.8214  -7.6224  -7.0058  -6.8673  -6.0983  -5.5860  -4.7872  -4.7365
    -4.6370  -4.0673   0.4456   0.9078   0.9314   0.9646   1.1991   1.3519
     1.7468   1.9302   2.1777   2.5681   2.5864   2.9545   3.3709   3.3798
     3.5426   3.8020   3.9447   3.9802   4.0415   4.1757   4.3594   4.3703
     4.6874   4.7997   5.8593   5.9635   6.1524   6.2537   6.3807   6.7630
     7.2159   7.2808

          k = 0.2541 0.0645-0.2971 ( 36436 PWs)   bands (ev):

   -44.1367 -44.1367 -22.2569 -22.2569 -22.1770 -22.1770 -22.0681 -22.0681
    -7.7358  -7.7358  -6.9206  -6.9206  -5.8883  -5.8883  -4.7599  -4.7599
    -4.3117  -4.3117   0.6277   0.6277   1.0328   1.0328   1.1356   1.1356
     1.9867   1.9867   2.4816   2.4816   2.6624   2.6624   3.2220   3.2220
     3.6486   3.6486   3.9662   3.9662   4.1316   4.1316   4.3784   4.3784
     4.9884   4.9884   5.7895   5.7895   6.1477   6.1477   6.4503   6.4503
     7.3897   7.3897

          k = 0.5081 0.1290 0.0000 ( 36499 PWs)   bands (ev):

   -44.1358 -44.1358 -22.2522 -22.2522 -22.2002 -22.2002 -22.0654 -22.0654
    -7.5034  -7.2179  -6.8984  -6.7270  -5.9882  -5.2577  -5.0351  -4.6646
    -4.6169  -4.4570   0.2783   0.5718   0.6506   1.1827   1.2037   1.3264
     1.6366   1.7023   1.9018   2.0971   2.1574   2.3010   2.4783   3.3994
     3.4988   3.5085   3.5838   3.5838   3.7722   3.8604   3.9526   4.1925
     4.3694   4.9854   5.6721   6.0940   6.1725   6.5977   6.6207   6.9860
     7.4514   7.5616

          k = 0.5081 0.1290 0.1485 ( 36476 PWs)   bands (ev):

   -44.1358 -44.1358 -22.2522 -22.2522 -22.2002 -22.2002 -22.0654 -22.0654
    -7.4744  -7.2832  -6.8505  -6.7404  -5.9171  -5.4587  -4.8771  -4.6479
    -4.6329  -4.4818   0.3098   0.5769   0.7577   0.9615   1.2363   1.3169
     1.4130   1.5667   2.0124   2.0949   2.3537   2.4515   2.8219   3.4060
     3.4308   3.4915   3.5156   3.6193   3.7315   3.7600   3.8543   4.2396
     4.3040   4.4880   6.1783   6.2138   6.3666   6.5984   6.6673   6.8521
     7.2943   7.5179

          k = 0.5081 0.1290-0.2971 ( 36466 PWs)   bands (ev):

   -44.1358 -44.1358 -22.2522 -22.2522 -22.2002 -22.2002 -22.0654 -22.0654
    -7.3931  -7.3931  -6.7822  -6.7822  -5.7227  -5.7227  -4.7282  -4.7282
    -4.5547  -4.5547   0.4380   0.4380   1.0028   1.0028   1.0488   1.0488
     1.4358   1.4358   2.0563   2.0563   2.6882   2.6882   3.1730   3.1730
     3.3998   3.3998   3.5628   3.5628   3.7274   3.7274   3.8565   3.8565
     4.3197   4.3197   6.4189   6.4189   6.5648   6.5648   6.8555   6.8555
     7.1738   7.1738

          k = 0.7622 0.1934 0.0000 ( 36521 PWs)   bands (ev):

   -44.1349 -44.1349 -22.2474 -22.2474 -22.2233 -22.2233 -22.0627 -22.0626
    -7.0011  -6.7483  -6.6866  -6.5477  -5.7480  -5.4309  -5.1875  -5.1264
    -4.5393  -4.5024  -0.0548   0.0179   0.4107   0.9736   0.9896   1.2806
     1.4844   1.6022   1.9882   2.1341   2.2367   2.3054   2.4284   2.7983
     2.9274   3.2632   3.3484   3.4764   3.5449   3.6688   3.7244   3.8001
     3.8171   4.5695   5.9928   6.3775   6.4403   6.8792   6.8989   6.9733
     7.3410   7.6317

          k = 0.7622 0.1934 0.1485 ( 36503 PWs)   bands (ev):

   -44.1349 -44.1349 -22.2474 -22.2474 -22.2233 -22.2233 -22.0627 -22.0626
    -6.9773  -6.8193  -6.6358  -6.5577  -5.6997  -5.4752  -5.1814  -5.1368
    -4.5311  -4.5056  -0.0432   0.1741   0.2953   0.8619   0.9795   1.2370
     1.4960   1.6146   1.9549   2.0498   2.1249   2.6085   2.6912   2.8736
     2.9033   3.0660   3.2712   3.3831   3.5219   3.6186   3.6830   3.9324
     3.9773   4.4934   5.7938   6.3819   6.6866   6.8036   6.9763   7.0027
     7.1202   7.6185

          k = 0.7622 0.1934-0.2971 ( 36522 PWs)   bands (ev):

   -44.1349 -44.1349 -22.2474 -22.2474 -22.2233 -22.2233 -22.0627 -22.0627
    -6.9111  -6.9111  -6.5871  -6.5871  -5.5859  -5.5859  -5.1608  -5.1608
    -4.5160  -4.5160   0.0872   0.0872   0.5075   0.5075   1.0826   1.0826
     1.5626   1.5626   2.0116   2.0116   2.3969   2.3969   2.8289   2.8289
     2.9809   2.9809   3.3010   3.3010   3.5976   3.5976   3.9178   3.9178
     4.0713   4.0713   6.2268   6.2268   6.4780   6.4780   7.0157   7.0157
     7.4806   7.4806

          k =-1.0162-0.2579 0.0000 ( 36506 PWs)   bands (ev):

   -44.1345 -44.1345 -22.2453 -22.2453 -22.2330 -22.2330 -22.0615 -22.0615
    -6.7288  -6.7085  -6.0853  -6.0742  -6.0445  -6.0384  -5.2768  -5.2762
    -4.4819  -4.4548  -0.0626  -0.0414   0.2519   0.2736   1.0112   1.0200
     1.4675   1.6659   2.2279   2.3905   2.4046   2.4240   2.8099   2.8187
     2.8216   2.8231   3.1984   3.2546   3.3183   3.3898   3.4656   3.6727
     3.8482   4.1315   6.6090   6.6364   6.6578   6.6840   7.0633   7.1602
     7.1643   7.2070

          k =-1.0162-0.2579 0.1485 ( 36506 PWs)   bands (ev):

   -44.1345 -44.1345 -22.2453 -22.2453 -22.2330 -22.2330 -22.0615 -22.0615
    -6.7247  -6.7103  -6.1100  -6.1023  -6.0185  -6.0139  -5.2745  -5.2741
    -4.4808  -4.4616  -0.1593  -0.1529   0.4619   0.4694   1.0072   1.0211
     1.4623   1.5941   2.0229   2.1338   2.3651   2.3974   2.6814   2.6876
     2.9352   3.0469   3.0854   3.1953   3.5537   3.5681   3.6174   3.7438
     4.0379   4.1757   6.1101   6.1289   6.5225   6.5990   7.1583   7.1744
     7.3689   7.4291

          k =-1.0162-0.2579-0.2971 ( 36528 PWs)   bands (ev):

   -44.1345 -44.1345 -22.2453 -22.2453 -22.2330 -22.2330 -22.0615 -22.0615
    -6.7163  -6.7163  -6.1223  -6.1223  -6.0011  -6.0011  -5.2720  -5.2720
    -4.4742  -4.4742  -0.2191  -0.2191   0.6838   0.6838   0.9627   0.9627
     1.5167   1.5167   1.8302   1.8302   2.3660   2.3660   2.7652   2.7652
     2.8733   2.8733   3.1721   3.1721   3.6363   3.6363   3.8032   3.8032
     4.3337   4.3337   5.7013   5.7013   6.4713   6.4713   7.1851   7.1851
     7.4879   7.4879

          k = 0.5081 0.0000 0.0000 ( 36503 PWs)   bands (ev):

   -44.1358 -44.1358 -22.2522 -22.2522 -22.2002 -22.2002 -22.0654 -22.0654
    -7.5066  -7.2185  -6.8991  -6.7240  -5.9849  -5.2575  -5.0324  -4.6586
    -4.6241  -4.4566   0.2835   0.5709   0.6454   1.1782   1.2322   1.2630
     1.6323   1.6972   1.8881   2.1029   2.1598   2.2810   2.4789   3.3915
     3.5183   3.5504   3.5618   3.5834   3.7808   3.9155   3.9360   4.2300
     4.3716   4.9796   5.6780   6.0706   6.2079   6.5600   6.5689   7.0223
     7.4622   7.5798

          k = 0.5081 0.0000 0.1485 ( 36453 PWs)   bands (ev):

   -44.1358 -44.1358 -22.2522 -22.2522 -22.2002 -22.2002 -22.0654 -22.0654
    -7.4774  -7.2848  -6.8497  -6.7375  -5.9146  -5.4583  -4.8730  -4.6493
    -4.6324  -4.4831   0.3127   0.5708   0.7586   0.9660   1.2560   1.2853
     1.3833   1.5446   2.0105   2.1061   2.3721   2.4097   2.8197   3.4110
     3.4746   3.4764   3.5029   3.6287   3.7214   3.8297   3.8378   4.2837
     4.3124   4.4773   6.1690   6.2240   6.3857   6.5517   6.6300   6.8847
     7.3125   7.5289

          k = 0.5081 0.0000-0.2971 ( 36452 PWs)   bands (ev):

   -44.1358 -44.1358 -22.2522 -22.2522 -22.2002 -22.2002 -22.0654 -22.0654
    -7.3956  -7.3956  -6.7798  -6.7798  -5.7215  -5.7215  -4.7244  -4.7244
    -4.5575  -4.5575   0.4363   0.4363   1.0043   1.0043   1.0547   1.0547
     1.3994   1.3994   2.0594   2.0594   2.6788   2.6788   3.1680   3.1680
     3.4057   3.4057   3.5726   3.5726   3.7567   3.7567   3.8522   3.8522
     4.3391   4.3391   6.4343   6.4343   6.5286   6.5286   6.8735   6.8735
     7.1746   7.1746

          k = 0.7622 0.0645 0.0000 ( 36505 PWs)   bands (ev):

   -44.1349 -44.1349 -22.2474 -22.2474 -22.2233 -22.2233 -22.0627 -22.0626
    -7.0086  -6.7458  -6.6878  -6.5413  -5.7481  -5.4281  -5.1880  -5.1256
    -4.5292  -4.5134  -0.0453   0.0145   0.4232   0.9786   1.0051   1.2943
     1.4493   1.5649   1.9546   2.1550   2.2627   2.2854   2.3643   2.7737
     2.9165   3.3102   3.3652   3.5267   3.5505   3.6445   3.6981   3.8135
     3.8302   4.5990   5.9902   6.3583   6.4494   6.8712   6.9326   6.9363
     7.3542   7.6549

          k = 0.7622 0.0645 0.1485 ( 36509 PWs)   bands (ev):

   -44.1349 -44.1349 -22.2474 -22.2474 -22.2233 -22.2233 -22.0627 -22.0626
    -6.9844  -6.8219  -6.6319  -6.5512  -5.7001  -5.4740  -5.1809  -5.1359
    -4.5241  -4.5133  -0.0355   0.1719   0.3039   0.8528   1.0059   1.2515
     1.4647   1.6130   1.9773   1.9960   2.0526   2.6171   2.6851   2.8674
     2.8814   3.0702   3.3199   3.3885   3.5608   3.6068   3.6593   3.9656
     3.9865   4.4888   5.8186   6.3598   6.7005   6.8048   6.9662   7.0259
     7.0932   7.6388

          k = 0.7622 0.0645-0.2971 ( 36472 PWs)   bands (ev):

   -44.1349 -44.1349 -22.2474 -22.2474 -22.2233 -22.2233 -22.0627 -22.0627
    -6.9168  -6.9168  -6.5808  -6.5808  -5.5863  -5.5863  -5.1596  -5.1596
    -4.5162  -4.5162   0.0954   0.0954   0.5003   0.5003   1.1040   1.1040
     1.5566   1.5566   1.9595   1.9595   2.3815   2.3815   2.8321   2.8321
     2.9639   2.9639   3.3567   3.3567   3.5947   3.5947   3.9072   3.9072
     4.0832   4.0832   6.2530   6.2530   6.4780   6.4780   6.9844   6.9844
     7.5083   7.5083

          k = 1.0162 0.1290 0.0000 ( 36514 PWs)   bands (ev):

   -44.1346 -44.1345 -22.2453 -22.2453 -22.2330 -22.2330 -22.0615 -22.0615
    -6.7288  -6.7085  -6.0852  -6.0744  -6.0445  -6.0383  -5.2768  -5.2762
    -4.4819  -4.4548  -0.0684  -0.0355   0.2484   0.2772   1.0041   1.0281
     1.4738   1.6563   2.2255   2.3937   2.4029   2.4209   2.7912   2.8077
     2.8205   2.8704   3.2175   3.2337   3.2969   3.3769   3.5133   3.6525
     3.8328   4.1464   6.6036   6.6234   6.6712   6.6916   7.0848   7.1608
     7.1663   7.1907

          k = 1.0162 0.1290 0.1485 ( 36524 PWs)   bands (ev):

   -44.1346 -44.1345 -22.2453 -22.2453 -22.2330 -22.2330 -22.0615 -22.0615
    -6.7247  -6.7103  -6.1099  -6.1023  -6.0184  -6.0139  -5.2745  -5.2741
    -4.4808  -4.4616  -0.1616  -0.1509   0.4633   0.4687   1.0079   1.0207
     1.4680   1.5882   2.0343   2.1167   2.3664   2.3936   2.6463   2.7292
     2.9423   3.0603   3.0785   3.1852   3.5235   3.5920   3.6317   3.7365
     4.0163   4.1951   6.1038   6.1393   6.5192   6.6016   7.1625   7.1738
     7.3781   7.4210

          k = 1.0162 0.1290-0.2971 ( 36516 PWs)   bands (ev):

   -44.1345 -44.1345 -22.2453 -22.2453 -22.2330 -22.2330 -22.0615 -22.0615
    -6.7163  -6.7163  -6.1223  -6.1223  -6.0011  -6.0011  -5.2720  -5.2720
    -4.4742  -4.4742  -0.2192  -0.2192   0.6842   0.6842   0.9625   0.9625
     1.5178   1.5178   1.8310   1.8310   2.3580   2.3580   2.7482   2.7482
     2.9109   2.9109   3.1565   3.1565   3.6388   3.6388   3.8012   3.8012
     4.3342   4.3342   5.7039   5.7039   6.4707   6.4707   7.1863   7.1863
     7.4889   7.4889

          k =-0.7622-0.3224 0.0000 ( 36511 PWs)   bands (ev):

   -44.1349 -44.1349 -22.2474 -22.2474 -22.2233 -22.2233 -22.0627 -22.0626
    -6.9897  -6.7527  -6.6849  -6.5567  -5.7479  -5.4348  -5.1867  -5.1277
    -4.5471  -4.4934  -0.0681   0.0228   0.3931   0.9402   1.0050   1.2637
     1.5039   1.6665   2.0567   2.1093   2.2393   2.3304   2.4543   2.8346
     2.9390   3.2142   3.3342   3.4670   3.5331   3.6327   3.6720   3.7619
     3.9133   4.5190   5.9966   6.3795   6.4650   6.7971   6.9414   7.0395
     7.3116   7.6000

          k =-0.7622-0.3224 0.1485 ( 36492 PWs)   bands (ev):

   -44.1349 -44.1349 -22.2474 -22.2474 -22.2233 -22.2233 -22.0627 -22.0626
    -6.9666  -6.8158  -6.6417  -6.5671  -5.6992  -5.4769  -5.1821  -5.1382
    -4.5366  -4.4993  -0.0541   0.1782   0.2823   0.8718   0.9533   1.2174
     1.5283   1.6224   1.9397   2.1475   2.1983   2.6005   2.6799   2.8922
     2.9180   3.0834   3.2179   3.3635   3.4745   3.5961   3.7277   3.8795
     3.9771   4.4982   5.7610   6.4174   6.6576   6.7998   6.9420   7.0506
     7.1477   7.5761

          k =-0.7622-0.3224-0.2971 ( 36508 PWs)   bands (ev):

   -44.1349 -44.1349 -22.2474 -22.2474 -22.2233 -22.2233 -22.0627 -22.0627
    -6.9027  -6.9027  -6.5963  -6.5963  -5.5854  -5.5854  -5.1625  -5.1625
    -4.5157  -4.5157   0.0759   0.0759   0.5172   0.5172   1.0572   1.0572
     1.5710   1.5710   2.0722   2.0722   2.4356   2.4356   2.8252   2.8252
     3.0060   3.0060   3.2221   3.2221   3.5953   3.5953   3.9077   3.9077
     4.0767   4.0767   6.1932   6.1932   6.4765   6.4765   7.0667   7.0667
     7.4326   7.4326

          k =-0.5081-0.2579 0.0000 ( 36480 PWs)   bands (ev):

   -44.1358 -44.1358 -22.2522 -22.2522 -22.2002 -22.2002 -22.0654 -22.0654
    -7.4956  -7.2166  -6.8973  -6.7335  -5.9964  -5.2580  -5.0417  -4.6735
    -4.6050  -4.4582   0.2661   0.5769   0.6566   1.1932   1.1964   1.4289
     1.6437   1.7240   1.9362   2.0851   2.1510   2.3394   2.4745   3.3955
     3.4192   3.4995   3.5567   3.6252   3.7379   3.7583   3.9801   4.1116
     4.3602   4.9974   5.6602   6.0796   6.1602   6.6948   6.7432   6.9002
     7.4142   7.5208

          k =-0.5081-0.2579 0.1485 ( 36485 PWs)   bands (ev):

   -44.1358 -44.1358 -22.2522 -22.2522 -22.2002 -22.2002 -22.0654 -22.0654
    -7.4669  -7.2795  -6.8528  -6.7471  -5.9233  -5.4596  -4.8867  -4.6448
    -4.6342  -4.4787   0.3028   0.5909   0.7544   0.9509   1.2294   1.3450
     1.4996   1.6291   2.0076   2.0751   2.3451   2.5096   2.8267   3.3270
     3.4365   3.4830   3.5349   3.6062   3.6232   3.7541   3.8688   4.1560
     4.2681   4.5072   6.1705   6.2147   6.3259   6.6987   6.7688   6.7830
     7.2431   7.4949

          k =-0.5081-0.2579-0.2971 ( 36478 PWs)   bands (ev):

   -44.1358 -44.1358 -22.2522 -22.2522 -22.2002 -22.2002 -22.0654 -22.0654
    -7.3868  -7.3868  -6.7880  -6.7880  -5.7255  -5.7255  -4.7370  -4.7370
    -4.5485  -4.5485   0.4417   0.4417   0.9977   0.9977   1.0395   1.0395
     1.5290   1.5290   2.0443   2.0443   2.7160   2.7160   3.1707   3.1707
     3.3820   3.3820   3.5182   3.5182   3.6922   3.6922   3.8641   3.8641
     4.2740   4.2740   6.3837   6.3837   6.6420   6.6420   6.8159   6.8159
     7.1792   7.1792

          k =-0.2541-0.1934 0.0000 ( 36410 PWs)   bands (ev):

   -44.1367 -44.1367 -22.2569 -22.2569 -22.1770 -22.1770 -22.0682 -22.0681
    -7.8467  -7.5577  -7.0554  -6.8549  -6.1830  -5.3703  -4.8940  -4.7842
    -4.7142  -3.9780   0.4103   0.8853   0.9878   1.1541   1.2780   1.4847
     1.7075   1.8420   1.8602   2.5450   2.5932   3.2479   3.2706   3.6749
     3.7132   3.7266   3.8106   3.8648   3.9026   4.1935   4.2962   4.3167
     4.3700   4.6054   5.9156   6.0121   6.2673   6.5652   6.6292   6.7227
     7.0006   7.1153

          k =-0.2541-0.1934 0.1485 ( 36427 PWs)   bands (ev):

   -44.1367 -44.1367 -22.2569 -22.2569 -22.1770 -22.1770 -22.0682 -22.0681
    -7.8163  -7.6199  -7.0039  -6.8714  -6.1085  -5.5890  -4.8048  -4.7293
    -4.6313  -4.0674   0.4691   0.9080   0.9453   1.0430   1.2328   1.3674
     1.7550   1.9337   2.2082   2.5432   2.5766   2.9423   3.3906   3.4226
     3.5529   3.7049   3.8142   3.9027   3.9942   4.1495   4.3147   4.3230
     4.6744   4.8074   5.8529   5.9873   6.1510   6.3252   6.4476   6.7635
     7.1763   7.2704

          k =-0.2541-0.1934-0.2971 ( 36422 PWs)   bands (ev):

   -44.1367 -44.1367 -22.2569 -22.2569 -22.1770 -22.1770 -22.0681 -22.0681
    -7.7315  -7.7315  -6.9228  -6.9228  -5.8942  -5.8942  -4.7642  -4.7642
    -4.3098  -4.3098   0.6469   0.6469   1.0778   1.0778   1.1559   1.1559
     1.9907   1.9907   2.4780   2.4780   2.6628   2.6628   3.2357   3.2357
     3.6429   3.6429   3.8299   3.8299   4.1089   4.1089   4.3255   4.3255
     5.0014   5.0014   5.7559   5.7559   6.1724   6.1724   6.5119   6.5119
     7.3755   7.3755

          k = 0.0000-0.1290 0.0000 ( 36417 PWs)   bands (ev):

   -44.1371 -44.1371 -22.2589 -22.2588 -22.1673 -22.1673 -22.0693 -22.0692
    -7.9699  -7.6748  -7.1251  -6.9011  -6.2395  -5.4164  -4.8640  -4.8254
    -4.7616  -3.8158   0.3187   0.7618   0.8334   1.1451   1.4093   1.5648
     2.1446   2.3010   2.3598   2.7728   2.9298   3.0084   3.3361   3.3510
     3.7058   3.8386   3.8907   4.0126   4.2853   4.2874   4.3434   4.6953
     4.7734   5.4130   5.6601   5.8814   5.9187   5.9672   6.1117   6.8111
     7.0197   7.2311

          k = 0.0000-0.1290 0.1485 ( 36419 PWs)   bands (ev):

   -44.1371 -44.1371 -22.2589 -22.2588 -22.1673 -22.1673 -22.0693 -22.0692
    -7.9388  -7.7382  -7.0680  -6.9193  -6.1671  -5.6411  -4.8267  -4.7742
    -4.6017  -3.9290   0.3899   0.8674   0.9136   0.9874   1.1123   1.8942
     2.0577   2.1680   2.3153   2.8096   2.9154   3.1003   3.3776   3.4502
     3.7273   3.8750   3.8964   3.9960   4.2171   4.3112   4.3604   4.6934
     4.7334   4.9431   5.8424   5.9382   5.9663   6.0895   6.4465   6.6303
     6.8382   7.1418

          k = 0.0000-0.1290-0.2971 ( 36464 PWs)   bands (ev):

   -44.1371 -44.1371 -22.2588 -22.2588 -22.1673 -22.1673 -22.0693 -22.0693
    -7.8523  -7.8523  -6.9769  -6.9769  -5.9535  -5.9535  -4.8001  -4.8001
    -4.2245  -4.2245   0.6147   0.6147   0.9694   0.9694   1.3539   1.3539
     2.2325   2.2325   2.6229   2.6229   2.8723   2.8723   3.5360   3.5360
     3.8491   3.8491   4.0487   4.0487   4.2484   4.2484   4.4050   4.4050
     4.6979   4.6979   5.9321   5.9321   6.2390   6.2390   6.4608   6.4608
     6.9065   6.9065

          k = 1.0162 0.0000 0.0000 ( 36499 PWs)   bands (ev):

   -44.1345 -44.1345 -22.2453 -22.2453 -22.2330 -22.2330 -22.0615 -22.0615
    -6.7288  -6.7085  -6.0850  -6.0746  -6.0445  -6.0383  -5.2768  -5.2763
    -4.4819  -4.4548  -0.0726  -0.0312   0.2457   0.2801   1.0003   1.0329
     1.4810   1.6458   2.2231   2.3981   2.4017   2.4166   2.7845   2.8069
     2.8166   2.8979   3.2276   3.2416   3.2662   3.3587   3.5853   3.6024
     3.8191   4.1599   6.5990   6.6154   6.6795   6.6985   7.1197   7.1610
     7.1616   7.1683

          k = 1.0162 0.0000 0.1485 ( 36485 PWs)   bands (ev):

   -44.1345 -44.1345 -22.2453 -22.2453 -22.2330 -22.2330 -22.0615 -22.0615
    -6.7247  -6.7103  -6.1098  -6.1024  -6.0184  -6.0140  -5.2745  -5.2741
    -4.4808  -4.4616  -0.1633  -0.1495   0.4657   0.4668   1.0087   1.0201
     1.4745   1.5817   2.0536   2.0919   2.3715   2.3861   2.6339   2.7461
     2.9550   3.0691   3.0749   3.1729   3.5096   3.5942   3.6553   3.7254
     3.9983   4.2107   6.1003   6.1469   6.5161   6.6040   7.1686   7.1714
     7.3982   7.4022

          k = 1.0162 0.0000-0.2971 ( 36514 PWs)   bands (ev):

   -44.1345 -44.1345 -22.2453 -22.2453 -22.2330 -22.2330 -22.0615 -22.0615
    -6.7163  -6.7163  -6.1223  -6.1223  -6.0011  -6.0011  -5.2720  -5.2720
    -4.4742  -4.4742  -0.2193  -0.2193   0.6846   0.6846   0.9623   0.9623
     1.5190   1.5190   1.8318   1.8318   2.3502   2.3502   2.7367   2.7367
     2.9464   2.9464   3.1373   3.1373   3.6413   3.6413   3.7991   3.7991
     4.3347   4.3347   5.7064   5.7064   6.4700   6.4700   7.1875   7.1875
     7.4900   7.4900

          k = 1.2703 0.0645 0.0000 ( 36468 PWs)   bands (ev):

   -44.1349 -44.1349 -22.2474 -22.2474 -22.2233 -22.2233 -22.0627 -22.0626
    -6.9810  -6.7565  -6.6836  -6.5628  -5.7478  -5.4375  -5.1861  -5.1286
    -4.5513  -4.4884  -0.0772   0.0264   0.3806   0.9216   1.0158   1.2527
     1.5072   1.7137   2.0938   2.1285   2.2548   2.3473   2.4293   2.8628
     2.9428   3.1767   3.3655   3.4985   3.5010   3.5870   3.6246   3.7142
     4.0018   4.4721   5.9993   6.3751   6.4978   6.7375   6.9741   7.1007
     7.2755   7.5920

          k = 1.2703 0.0645 0.1485 ( 36490 PWs)   bands (ev):

   -44.1349 -44.1349 -22.2474 -22.2474 -22.2233 -22.2233 -22.0627 -22.0626
    -6.9585  -6.8136  -6.6461  -6.5737  -5.6988  -5.4781  -5.1826  -5.1392
    -4.5394  -4.4958  -0.0618   0.1821   0.2723   0.8746   0.9427   1.2047
     1.5429   1.6329   1.9353   2.2172   2.2557   2.5970   2.6526   2.9029
     2.9295   3.1124   3.1843   3.3364   3.4684   3.5482   3.7628   3.8301
     3.9896   4.5001   5.7395   6.4474   6.6281   6.7966   6.9230   7.1043
     7.1577   7.5359

          k = 1.2703 0.0645-0.2971 ( 36480 PWs)   bands (ev):

   -44.1349 -44.1349 -22.2474 -22.2474 -22.2233 -22.2233 -22.0627 -22.0627
    -6.8965  -6.8965  -6.6032  -6.6032  -5.5850  -5.5850  -5.1637  -5.1637
    -4.5155  -4.5155   0.0681   0.0681   0.5236   0.5236   1.0420   1.0420
     1.5772   1.5772   2.1035   2.1035   2.4799   2.4799   2.8243   2.8243
     3.0244   3.0244   3.1614   3.1614   3.5902   3.5902   3.8854   3.8854
     4.0941   4.0941   6.1714   6.1714   6.4748   6.4748   7.1095   7.1095
     7.3895   7.3896

          k =-0.5081-0.3869 0.0000 ( 36463 PWs)   bands (ev):

   -44.1358 -44.1358 -22.2522 -22.2522 -22.2002 -22.2002 -22.0654 -22.0654
    -7.4874  -7.2152  -6.8971  -6.7393  -6.0047  -5.2583  -5.0483  -4.6790
    -4.5965  -4.4593   0.2543   0.5870   0.6523   1.2034   1.2076   1.5410
     1.6515   1.7362   1.9730   2.0659   2.1776   2.3436   2.4669   3.2847
     3.4448   3.4931   3.5178   3.6710   3.6750   3.7283   3.9067   4.1093
     4.3478   5.0063   5.6505   5.9906   6.2272   6.8029   6.8149   6.8707
     7.3479   7.4989

          k =-0.5081-0.3869 0.1485 ( 36477 PWs)   bands (ev):

   -44.1358 -44.1358 -22.2522 -22.2522 -22.2002 -22.2002 -22.0654 -22.0654
    -7.4591  -7.2757  -6.8558  -6.7532  -5.9295  -5.4604  -4.8960  -4.6418
    -4.6357  -4.4758   0.2961   0.6044   0.7488   0.9407   1.2347   1.3616
     1.6082   1.7013   1.9887   2.0548   2.3601   2.5344   2.8316   3.2301
     3.4450   3.4691   3.5068   3.5570   3.6314   3.7394   3.8626   4.1151
     4.2147   4.5232   6.1219   6.2443   6.3001   6.6963   6.8037   6.9026
     7.1733   7.4874

          k =-0.5081-0.3869-0.2971 ( 36492 PWs)   bands (ev):

   -44.1358 -44.1358 -22.2522 -22.2522 -22.2002 -22.2002 -22.0654 -22.0654
    -7.3804  -7.3804  -6.7940  -6.7940  -5.7282  -5.7282  -4.7453  -4.7453
    -4.5427  -4.5427   0.4452   0.4452   0.9915   0.9915   1.0339   1.0339
     1.6393   1.6393   2.0186   2.0186   2.7551   2.7551   3.1239   3.1239
     3.3678   3.3678   3.4779   3.4779   3.6819   3.6819   3.8664   3.8664
     4.2327   4.2327   6.3503   6.3503   6.6847   6.6847   6.8000   6.8000
     7.2016   7.2016

          k =-0.2541-0.3224 0.0000 ( 36485 PWs)   bands (ev):

   -44.1367 -44.1367 -22.2569 -22.2569 -22.1770 -22.1770 -22.0682 -22.0681
    -7.8389  -7.5563  -7.0492  -6.8602  -6.2009  -5.3738  -4.9084  -4.7859
    -4.7032  -3.9793   0.4358   0.8960   1.1063   1.1452   1.3265   1.5561
     1.7445   1.8520   1.8877   2.4747   2.5500   3.2305   3.3722   3.5205
     3.6021   3.6818   3.7295   3.8295   3.9457   4.1390   4.1666   4.2777
     4.3139   4.6319   6.0047   6.0446   6.3327   6.5745   6.6623   6.7793
     6.9236   7.0409

          k =-0.2541-0.3224 0.1485 ( 36445 PWs)   bands (ev):

   -44.1367 -44.1367 -22.2569 -22.2569 -22.1770 -22.1770 -22.0682 -22.0681
    -7.8089  -7.6164  -7.0018  -6.8765  -6.1230  -5.5932  -4.8244  -4.7234
    -4.6243  -4.0674   0.4927   0.9153   0.9599   1.1689   1.3042   1.3929
     1.7748   1.9381   2.2553   2.4778   2.5384   2.9383   3.4008   3.4785
     3.5174   3.5482   3.6584   3.8986   3.9213   4.0940   4.2285   4.2849
     4.6902   4.8008   5.8452   6.0204   6.1507   6.3701   6.5446   6.7560
     7.1406   7.2528

          k =-0.2541-0.3224-0.2971 ( 36442 PWs)   bands (ev):

   -44.1367 -44.1367 -22.2569 -22.2569 -22.1770 -22.1770 -22.0681 -22.0681
    -7.7254  -7.7254  -6.9260  -6.9260  -5.9025  -5.9025  -4.7702  -4.7702
    -4.3070  -4.3070   0.6650   0.6650   1.1182   1.1182   1.2355   1.2355
     1.9993   1.9993   2.4553   2.4553   2.6605   2.6605   3.2542   3.2542
     3.5045   3.5045   3.7994   3.7994   4.0546   4.0546   4.2642   4.2642
     5.0198   5.0198   5.7191   5.7191   6.1697   6.1697   6.5993   6.5993
     7.3589   7.3589

          k = 0.0000-0.2579 0.0000 ( 36445 PWs)   bands (ev):

   -44.1371 -44.1371 -22.2589 -22.2588 -22.1673 -22.1673 -22.0693 -22.0692
    -7.9630  -7.6736  -7.1170  -6.9060  -6.2589  -5.4212  -4.8856  -4.8225
    -4.7480  -3.8170   0.3534   0.7719   0.9433   1.1951   1.4354   1.6292
     2.1453   2.3003   2.3582   2.7905   2.9343   3.0261   3.3041   3.4419
     3.4941   3.6502   3.8113   3.9555   4.1566   4.2100   4.2878   4.6936
     4.7450   5.3708   5.7128   5.9374   5.9391   6.0460   6.1981   6.7978
     7.0198   7.1473

          k = 0.0000-0.2579 0.1485 ( 36452 PWs)   bands (ev):

   -44.1371 -44.1371 -22.2589 -22.2588 -22.1673 -22.1673 -22.0693 -22.0692
    -7.9322  -7.7350  -7.0640  -6.9238  -6.1833  -5.6465  -4.8453  -4.7669
    -4.5969  -3.9292   0.4228   0.9257   0.9672   1.0391   1.1649   1.9076
     2.0994   2.1687   2.3147   2.8246   2.9214   3.1030   3.3262   3.4389
     3.6431   3.6654   3.8710   3.9091   4.1863   4.2092   4.2385   4.6912
     4.7161   4.9355   5.8818   5.9903   6.0290   6.1033   6.4765   6.6176
     6.8406   7.0885

          k = 0.0000-0.2579-0.2971 ( 36454 PWs)   bands (ev):

   -44.1371 -44.1371 -22.2589 -22.2589 -22.1673 -22.1673 -22.0693 -22.0693
    -7.8468  -7.8468  -6.9787  -6.9787  -5.9633  -5.9633  -4.8052  -4.8052
    -4.2228  -4.2228   0.6491   0.6491   1.0530   1.0530   1.3700   1.3700
     2.2329   2.2329   2.6498   2.6498   2.8823   2.8823   3.4217   3.4217
     3.7766   3.7766   4.0293   4.0293   4.1202   4.1202   4.3766   4.3766
     4.6923   4.6923   5.9598   5.9598   6.2714   6.2714   6.4680   6.4680
     6.8829   6.8829

          k = 1.5243 0.0000 0.0000 ( 36439 PWs)   bands (ev):

   -44.1358 -44.1358 -22.2522 -22.2522 -22.2002 -22.2002 -22.0654 -22.0654
    -7.4840  -7.2147  -6.8973  -6.7414  -6.0082  -5.2584  -5.0510  -4.6807
    -4.5935  -4.4598   0.2496   0.5939   0.6463   1.2075   1.2149   1.6041
     1.6772   1.7002   1.9890   2.0587   2.2239   2.3106   2.4625   3.2430
     3.4468   3.4593   3.5248   3.6744   3.7024   3.7370   3.8129   4.1303
     4.3420   5.0088   5.6470   5.9528   6.2581   6.7788   6.8538   6.9294
     7.3044   7.5364

          k = 1.5243 0.0000 0.1485 ( 36476 PWs)   bands (ev):

   -44.1358 -44.1358 -22.2522 -22.2522 -22.2002 -22.2002 -22.0654 -22.0654
    -7.4558  -7.2741  -6.8573  -6.7556  -5.9321  -5.4608  -4.8998  -4.6405
    -4.6364  -4.4746   0.2934   0.6101   0.7458   0.9366   1.2385   1.3674
     1.6781   1.7178   1.9865   2.0330   2.3800   2.5274   2.8335   3.1923
     3.4036   3.4729   3.4968   3.5706   3.6549   3.7256   3.8299   4.1442
     4.1647   4.5296   6.0966   6.2587   6.2937   6.6665   6.8437   6.9722
     7.1272   7.5034

          k = 1.5243 0.0000-0.2971 ( 36508 PWs)   bands (ev):

   -44.1358 -44.1358 -22.2522 -22.2522 -22.2002 -22.2002 -22.0654 -22.0654
    -7.3777  -7.3777  -6.7966  -6.7966  -5.7293  -5.7293  -4.7486  -4.7486
    -4.5404  -4.5404   0.4465   0.4465   0.9889   0.9889   1.0322   1.0322
     1.6961   1.6961   1.9985   1.9985   2.7780   2.7780   3.0831   3.0831
     3.3686   3.3686   3.4674   3.4674   3.6791   3.6791   3.8646   3.8646
     4.2179   4.2179   6.3368   6.3368   6.6835   6.6835   6.8078   6.8078
     7.2188   7.2188

          k =-0.2541-0.4514 0.0000 ( 36444 PWs)   bands (ev):

   -44.1367 -44.1367 -22.2569 -22.2569 -22.1770 -22.1770 -22.0682 -22.0681
    -7.8333  -7.5554  -7.0454  -6.8631  -6.2139  -5.3761  -4.9186  -4.7846
    -4.6979  -3.9802   0.4471   0.9051   1.1370   1.2282   1.3398   1.6402
     1.7717   1.8531   1.9219   2.3980   2.4773   3.2347   3.3747   3.4508
     3.4812   3.7322   3.7337   3.8265   3.8808   4.0986   4.1089   4.2082
     4.3113   4.6488   6.0609   6.0793   6.3606   6.5824   6.6902   6.8170
     6.8334   7.0141

          k =-0.2541-0.4514 0.1485 ( 36461 PWs)   bands (ev):

   -44.1367 -44.1367 -22.2569 -22.2569 -22.1770 -22.1770 -22.0682 -22.0681
    -7.8035  -7.6138  -7.0008  -6.8797  -6.1334  -5.5961  -4.8366  -4.7204
    -4.6199  -4.0674   0.5030   0.9253   0.9633   1.2893   1.3460   1.4313
     1.8023   1.9405   2.3037   2.4047   2.4607   2.9500   3.3362   3.3773
     3.4882   3.5494   3.7323   3.8578   3.8953   3.9650   4.2134   4.2562
     4.7141   4.7868   5.8409   6.0425   6.1594   6.3679   6.6116   6.7408
     7.1320   7.2385

          k =-0.2541-0.4514-0.2971 ( 36490 PWs)   bands (ev):

   -44.1367 -44.1367 -22.2569 -22.2569 -22.1770 -22.1770 -22.0681 -22.0681
    -7.7210  -7.7210  -6.9284  -6.9284  -5.9082  -5.9082  -4.7745  -4.7745
    -4.3051  -4.3051   0.6727   0.6727   1.1300   1.1300   1.3339   1.3339
     2.0097   2.0097   2.4097   2.4097   2.6612   2.6612   3.2486   3.2486
     3.3951   3.3951   3.8430   3.8430   3.9832   3.9832   4.2341   4.2341
     5.0329   5.0329   5.6967   5.6967   6.1561   6.1561   6.6534   6.6534
     7.3506   7.3506

          k = 0.0000-0.3869 0.0000 ( 36477 PWs)   bands (ev):

   -44.1371 -44.1371 -22.2589 -22.2588 -22.1673 -22.1673 -22.0693 -22.0692
    -7.9559  -7.6723  -7.1096  -6.9097  -6.2790  -5.4257  -4.9052  -4.8154
    -4.7408  -3.8182   0.3760   0.7831   1.0927   1.2569   1.4600   1.7009
     2.1460   2.3017   2.3565   2.8096   2.9382   3.0575   3.1440   3.2014
     3.5517   3.5973   3.7835   3.9511   4.0113   4.0366   4.2880   4.6922
     4.7171   5.3460   5.7661   5.9563   6.0101   6.0951   6.2561   6.7322
     7.0198   7.1023

          k = 0.0000-0.3869 0.1485 ( 36452 PWs)   bands (ev):

   -44.1371 -44.1371 -22.2589 -22.2588 -22.1673 -22.1673 -22.0693 -22.0692
    -7.9254  -7.7318  -7.0606  -6.9274  -6.1998  -5.6518  -4.8608  -4.7621
    -4.5927  -3.9294   0.4425   0.9481   1.0172   1.1653   1.2419   1.9234
     2.1424   2.1693   2.3141   2.8407   2.9271   3.0342   3.1506   3.3326
     3.5367   3.7194   3.8451   3.9195   4.0550   4.0831   4.2006   4.6893
     4.6993   4.9337   5.9304   6.0328   6.0604   6.1174   6.4933   6.5753
     6.8430   7.0483

          k = 0.0000-0.3869-0.2971 ( 36454 PWs)   bands (ev):

   -44.1371 -44.1371 -22.2589 -22.2589 -22.1673 -22.1673 -22.0693 -22.0693
    -7.8412  -7.8412  -6.9806  -6.9806  -5.9730  -5.9730  -4.8103  -4.8103
    -4.2209  -4.2209   0.6676   0.6676   1.1767   1.1767   1.3878   1.3878
     2.2332   2.2332   2.6683   2.6683   2.8928   2.8928   3.1936   3.1936
     3.8196   3.8196   4.0050   4.0050   4.0094   4.0094   4.3484   4.3484
     4.6870   4.6870   5.9663   5.9663   6.2993   6.2993   6.4755   6.4755
     6.8498   6.8498

          k =-2.0325 0.0000 0.0000 ( 36452 PWs)   bands (ev):

   -44.1371 -44.1371 -22.2589 -22.2588 -22.1673 -22.1673 -22.0693 -22.0692
    -7.9529  -7.6718  -7.1068  -6.9109  -6.2875  -5.4276  -4.9127  -4.8119
    -4.7389  -3.8187   0.3819   0.7879   1.2160   1.2332   1.4696   1.7443
     2.1463   2.3031   2.3558   2.8180   2.9396   3.0258   3.0755   3.0835
     3.5453   3.7417   3.7718   3.8601   3.9513   3.9726   4.2881   4.6916
     4.7056   5.3383   5.7879   5.9642   6.0476   6.1105   6.2741   6.6860
     7.0198   7.0946

          k =-2.0325 0.0000 0.1485 ( 36456 PWs)   bands (ev):

   -44.1371 -44.1371 -22.2589 -22.2588 -22.1673 -22.1673 -22.0693 -22.0692
    -7.9226  -7.7305  -7.0594  -6.9287  -6.2067  -5.6540  -4.8668  -4.7605
    -4.5911  -3.9295   0.4471   0.9567   1.0325   1.2413   1.2794   1.9308
     2.1633   2.1696   2.3139   2.8477   2.9294   2.9573   3.0317   3.3296
     3.5129   3.8073   3.8342   3.9331   3.9592   4.0083   4.1968   4.6888
     4.6923   4.9337   5.9549   6.0512   6.0644   6.1233   6.4972   6.5476
     6.8441   7.0365

          k =-2.0325 0.0000-0.2971 ( 36460 PWs)   bands (ev):

   -44.1371 -44.1371 -22.2589 -22.2589 -22.1673 -22.1673 -22.0693 -22.0693
    -7.8389  -7.8389  -6.9814  -6.9814  -5.9770  -5.9770  -4.8125  -4.8125
    -4.2202  -4.2202   0.6717   0.6717   1.2422   1.2422   1.3960   1.3960
     2.2334   2.2334   2.6666   2.6666   2.8972   2.8972   3.0915   3.0915
     3.8820   3.8820   3.9238   3.9238   4.0010   4.0010   4.3383   4.3383
     4.6850   4.6850   5.9649   5.9649   6.3090   6.3090   6.4787   6.4787
     6.8350   6.8350

     the Fermi energy is     5.5353 ev

!    total energy              =   -4240.95226022 Ry

     total all-electron energy =   -150287.645955 Ry
     estimated scf accuracy    <          2.1E-11 Ry
     smearing contrib. (-TS)   =       0.00000041 Ry
     internal energy E=F+TS    =   -4240.95226063 Ry

     The total energy is F=E-TS. E is the sum of the following terms:
     one-electron contribution =    -167.46330672 Ry
     hartree contribution      =     117.20312113 Ry
     xc contribution           =    -201.53358292 Ry
     ewald contribution        =    -221.63303401 Ry
     one-center paw contrib.   =   -3767.52545812 Ry

     convergence has been achieved in  17 iterations

     Forces acting on atoms (cartesian axes, Ry/au):

     atom    1 type  1   force =     0.00000000    0.00569232    0.00000000
     atom    2 type  1   force =     0.00000000   -0.00569232    0.00000000
     atom    3 type  2   force =     0.00000000    0.00001142    0.00000000
     atom    4 type  2   force =     0.00000000   -0.00001142    0.00000000
     atom    5 type  2   force =     0.00000000   -0.00130105   -0.00047651
     atom    6 type  2   force =    -0.00000000    0.00130105    0.00047651
     atom    7 type  2   force =     0.00000000   -0.00130105    0.00047651
     atom    8 type  2   force =     0.00000000    0.00130105   -0.00047651
     atom    9 type  2   force =     0.00000000   -0.00916410   -0.00986427
     atom   10 type  2   force =     0.00000000    0.00916410    0.00986427
     atom   11 type  2   force =     0.00000000   -0.00916410    0.00986427
     atom   12 type  2   force =     0.00000000    0.00916410   -0.00986427

     Total force =     0.028242     Total SCF correction =     0.000006


     Computing stress (Cartesian axis) and pressure

          total   stress  (Ry/bohr**3)                   (kbar)     P=        2.25
   0.00001411  -0.00000000   0.00000000            2.08       -0.00        0.00
   0.00000000   0.00001064   0.00000000            0.00        1.57        0.00
   0.00000000   0.00000000   0.00002103            0.00        0.00        3.09

 
     init_run     :     18.12s CPU     18.64s WALL (       1 calls)
     electrons    :    877.78s CPU    888.05s WALL (       1 calls)
     forces       :      6.63s CPU      6.86s WALL (       1 calls)
     stress       :     42.90s CPU     43.48s WALL (       1 calls)

     Called by init_run:
     wfcinit      :     13.55s CPU     13.73s WALL (       1 calls)
     potinit      :      1.47s CPU      1.52s WALL (       1 calls)
     hinit0       :      1.75s CPU      1.80s WALL (       1 calls)

     Called by electrons:
     c_bands      :    730.99s CPU    733.98s WALL (      18 calls)
     sum_band     :    121.86s CPU    125.80s WALL (      18 calls)
     v_of_rho     :      5.47s CPU      5.72s WALL (      18 calls)
     newd         :     13.92s CPU     17.18s WALL (      18 calls)
     PAW_pot      :      5.78s CPU      5.78s WALL (      18 calls)
     mix_rho      :      0.78s CPU      0.81s WALL (      18 calls)

     Called by c_bands:
     init_us_2    :     11.05s CPU     11.09s WALL (    2457 calls)
     cegterg      :    656.13s CPU    658.62s WALL (    1134 calls)

     Called by *egterg:
     cdiaghg      :     25.75s CPU     25.81s WALL (    7607 calls)
     h_psi        :    501.63s CPU    504.03s WALL (    7733 calls)
     s_psi        :     42.54s CPU     42.59s WALL (    7733 calls)
     g_psi        :      1.82s CPU      1.83s WALL (    6536 calls)

     Called by h_psi:
     h_psi:calbec :     36.70s CPU     36.75s WALL (    7733 calls)
     vloc_psi     :    419.68s CPU    421.88s WALL (    7733 calls)
     add_vuspsi   :     42.39s CPU     42.46s WALL (    7733 calls)

     General routines
     calbec       :     48.74s CPU     48.83s WALL (    9182 calls)
     fft          :      3.14s CPU      3.25s WALL (     258 calls)
     ffts         :      0.07s CPU      0.08s WALL (      36 calls)
     fftw         :    390.16s CPU    392.16s WALL (  401934 calls)
     interpolate  :      0.29s CPU      0.29s WALL (      18 calls)
 
     Parallel routines
 
     PWSCF        :  15m45.68s CPU  15m57.34s WALL

 
   This run was terminated on:  15:30:59  19Nov2021            

=------------------------------------------------------------------------------=
   JOB DONE.
=------------------------------------------------------------------------------=
