
     Program PWSCF v.6.8 starts on 19Nov2021 at 15:13:21 

     This program is part of the open-source Quantum ESPRESSO suite
     for quantum simulation of materials; please cite
         "P. Giannozzi et al., J. Phys.:Condens. Matter 21 395502 (2009);
         "P. Giannozzi et al., J. Phys.:Condens. Matter 29 465901 (2017);
         "P. Giannozzi et al., J. Chem. Phys. 152 154105 (2020);
          URL http://www.quantum-espresso.org", 
     in publications or presentations arising from this work. More details at
     http://www.quantum-espresso.org/quote

     Parallel version (MPI), running on    10 processors

     MPI processes distributed on     1 nodes
     R & G space division:  proc/nbgrp/npool/nimage =      10
     70512 MiB available memory on the printing compute node when the environment starts
 
     Waiting for input...
     Reading input from standard input

     Current dimensions of program PWSCF are:
     Max number of different atomic species (ntypx) = 10
     Max number of k-points (npk) =  40000
     Max angular momentum in pseudopotentials (lmaxx) =  4
     file Zr.pbe-spn-kjpaw_psl.1.0.0.UPF: wavefunction(s)  4S 4P renormalized
     file Te.pbe-n-kjpaw_psl.1.0.0.UPF: wavefunction(s)  5S 5P renormalized
     Message from routine setup:
     using ibrav=0 with symmetry is DISCOURAGED, use correct ibrav instead

     Subspace diagonalization in iterative solution of the eigenvalue problem:
     a serial algorithm will be used

 
     Parallelization info
     --------------------
     sticks:   dense  smooth     PW     G-vecs:    dense   smooth      PW
     Min         734     293     87               115340    29174    4753
     Max         735     295     88               115345    29176    4760
     Sum        7345    2937    873              1153415   291749   47557
 
     Using Slab Decomposition
 


     bravais-lattice index     =            0
     lattice parameter (alat)  =      15.5510  a.u.
     unit-cell volume          =    3018.5011 (a.u.)^3
     number of atoms/cell      =           12
     number of atomic types    =            2
     number of electrons       =        84.00
     number of Kohn-Sham states=           50
     kinetic-energy cutoff     =      80.0000  Ry
     charge density cutoff     =     800.0000  Ry
     scf convergence threshold =      1.0E-10
     mixing beta               =       0.7000
     number of iterations used =            8  plain     mixing
     Exchange-correlation= SLA  PW   PBX  PBC
                           (   1   4   3   4   0   0   0)

     celldm(1)=  15.551040  celldm(2)=   0.000000  celldm(3)=   0.000000
     celldm(4)=   0.000000  celldm(5)=   0.000000  celldm(6)=   0.000000

     crystal axes: (cart. coord. in units of alat)
               a(1) = (   0.246007  -0.969268   0.000000 )  
               a(2) = (   0.246007   0.969268   0.000000 )  
               a(3) = (   0.000000   0.000000   1.683031 )  

     reciprocal axes: (cart. coord. in units 2 pi/alat)
               b(1) = (  2.032465 -0.515853  0.000000 )  
               b(2) = (  2.032465  0.515853  0.000000 )  
               b(3) = (  0.000000  0.000000  0.594166 )  


     PseudoPot. # 1 for Zr read from file:
     pseudo/Zr.pbe-spn-kjpaw_psl.1.0.0.UPF
     MD5 check sum: 02112c41713a0468aff2bb39ef194e36
     Pseudo is Projector augmented-wave + core cor, Zval = 12.0
     Generated using &quot;atomic&quot; code by A. Dal Corso  v.6.2.2
     Shape of augmentation charge: PSQ
     Using radial grid of 1225 points,  6 beta functions with: 
                l(1) =   0
                l(2) =   0
                l(3) =   1
                l(4) =   1
                l(5) =   2
                l(6) =   2
     Q(r) pseudized with 0 coefficients 


     PseudoPot. # 2 for Te read from file:
     pseudo/Te.pbe-n-kjpaw_psl.1.0.0.UPF
     MD5 check sum: 66247bff2bd9dbf220fbb0bf5ab56e9d
     Pseudo is Projector augmented-wave + core cor, Zval =  6.0
     Generated using &quot;atomic&quot; code by A. Dal Corso  v.6.3
     Shape of augmentation charge: PSQ
     Using radial grid of 1245 points,  6 beta functions with: 
                l(1) =   0
                l(2) =   0
                l(3) =   1
                l(4) =   1
                l(5) =   2
                l(6) =   2
     Q(r) pseudized with 0 coefficients 


     atomic species   valence    mass     pseudopotential
        Zr            12.00    91.22000     Zr( 1.00)
        Te             6.00   127.60000     Te( 1.00)

      8 Sym. Ops., with inversion, found ( 4 have fractional translation)



   Cartesian axes

     site n.     atom                  positions (alat units)
         1           Zr  tau(   1) = (   0.0000000   0.6052877   0.4207578  )
         2           Zr  tau(   2) = (   0.2460067   0.3639804   1.2622733  )
         3           Te  tau(   3) = (   0.2460067   0.3342420   0.4207578  )
         4           Te  tau(   4) = (   0.0000000   0.6350262   1.2622733  )
         5           Te  tau(   5) = (   0.2460067   0.8099713   0.2521627  )
         6           Te  tau(   6) = (   0.0000000   0.1592968   1.4308684  )
         7           Te  tau(   7) = (   0.2460067   0.8099713   0.5893528  )
         8           Te  tau(   8) = (   0.0000000   0.1592968   1.0936782  )
         9           Te  tau(   9) = (   0.0000000   0.4154520   0.7314168  )
        10           Te  tau(  10) = (   0.2460067   0.5538161   0.9516143  )
        11           Te  tau(  11) = (   0.0000000   0.4154520   0.1100987  )
        12           Te  tau(  12) = (   0.2460067   0.5538161   1.5729323  )

     number of k points=    63  Methfessel-Paxton smearing, width (Ry)=  0.0030
                       cart. coord. in units 2pi/alat
        k(    1) = (   0.0000000   0.0000000   0.0000000), wk =   0.0078125
        k(    2) = (   0.0000000   0.0000000   0.1485415), wk =   0.0156250
        k(    3) = (   0.0000000   0.0000000  -0.2970830), wk =   0.0078125
        k(    4) = (   0.2540581   0.0644816   0.0000000), wk =   0.0312500
        k(    5) = (   0.2540581   0.0644816   0.1485415), wk =   0.0625000
        k(    6) = (   0.2540581   0.0644816  -0.2970830), wk =   0.0312500
        k(    7) = (   0.5081162   0.1289633   0.0000000), wk =   0.0312500
        k(    8) = (   0.5081162   0.1289633   0.1485415), wk =   0.0625000
        k(    9) = (   0.5081162   0.1289633  -0.2970830), wk =   0.0312500
        k(   10) = (   0.7621743   0.1934449   0.0000000), wk =   0.0312500
        k(   11) = (   0.7621743   0.1934449   0.1485415), wk =   0.0625000
        k(   12) = (   0.7621743   0.1934449  -0.2970830), wk =   0.0312500
        k(   13) = (  -1.0162324  -0.2579266   0.0000000), wk =   0.0156250
        k(   14) = (  -1.0162324  -0.2579266   0.1485415), wk =   0.0312500
        k(   15) = (  -1.0162324  -0.2579266  -0.2970830), wk =   0.0156250
        k(   16) = (   0.5081162   0.0000000   0.0000000), wk =   0.0156250
        k(   17) = (   0.5081162   0.0000000   0.1485415), wk =   0.0312500
        k(   18) = (   0.5081162   0.0000000  -0.2970830), wk =   0.0156250
        k(   19) = (   0.7621743   0.0644816   0.0000000), wk =   0.0312500
        k(   20) = (   0.7621743   0.0644816   0.1485415), wk =   0.0625000
        k(   21) = (   0.7621743   0.0644816  -0.2970830), wk =   0.0312500
        k(   22) = (   1.0162324   0.1289633   0.0000000), wk =   0.0312500
        k(   23) = (   1.0162324   0.1289633   0.1485415), wk =   0.0625000
        k(   24) = (   1.0162324   0.1289633  -0.2970830), wk =   0.0312500
        k(   25) = (  -0.7621743  -0.3224082   0.0000000), wk =   0.0312500
        k(   26) = (  -0.7621743  -0.3224082   0.1485415), wk =   0.0625000
        k(   27) = (  -0.7621743  -0.3224082  -0.2970830), wk =   0.0312500
        k(   28) = (  -0.5081162  -0.2579266   0.0000000), wk =   0.0312500
        k(   29) = (  -0.5081162  -0.2579266   0.1485415), wk =   0.0625000
        k(   30) = (  -0.5081162  -0.2579266  -0.2970830), wk =   0.0312500
        k(   31) = (  -0.2540581  -0.1934449   0.0000000), wk =   0.0312500
        k(   32) = (  -0.2540581  -0.1934449   0.1485415), wk =   0.0625000
        k(   33) = (  -0.2540581  -0.1934449  -0.2970830), wk =   0.0312500
        k(   34) = (   0.0000000  -0.1289633   0.0000000), wk =   0.0156250
        k(   35) = (   0.0000000  -0.1289633   0.1485415), wk =   0.0312500
        k(   36) = (   0.0000000  -0.1289633  -0.2970830), wk =   0.0156250
        k(   37) = (   1.0162324   0.0000000   0.0000000), wk =   0.0156250
        k(   38) = (   1.0162324   0.0000000   0.1485415), wk =   0.0312500
        k(   39) = (   1.0162324   0.0000000  -0.2970830), wk =   0.0156250
        k(   40) = (   1.2702905   0.0644816   0.0000000), wk =   0.0312500
        k(   41) = (   1.2702905   0.0644816   0.1485415), wk =   0.0625000
        k(   42) = (   1.2702905   0.0644816  -0.2970830), wk =   0.0312500
        k(   43) = (  -0.5081162  -0.3868899   0.0000000), wk =   0.0312500
        k(   44) = (  -0.5081162  -0.3868899   0.1485415), wk =   0.0625000
        k(   45) = (  -0.5081162  -0.3868899  -0.2970830), wk =   0.0312500
        k(   46) = (  -0.2540581  -0.3224082   0.0000000), wk =   0.0312500
        k(   47) = (  -0.2540581  -0.3224082   0.1485415), wk =   0.0625000
        k(   48) = (  -0.2540581  -0.3224082  -0.2970830), wk =   0.0312500
        k(   49) = (   0.0000000  -0.2579266   0.0000000), wk =   0.0156250
        k(   50) = (   0.0000000  -0.2579266   0.1485415), wk =   0.0312500
        k(   51) = (   0.0000000  -0.2579266  -0.2970830), wk =   0.0156250
        k(   52) = (   1.5243485   0.0000000   0.0000000), wk =   0.0156250
        k(   53) = (   1.5243485   0.0000000   0.1485415), wk =   0.0312500
        k(   54) = (   1.5243485   0.0000000  -0.2970830), wk =   0.0156250
        k(   55) = (  -0.2540581  -0.4513715   0.0000000), wk =   0.0312500
        k(   56) = (  -0.2540581  -0.4513715   0.1485415), wk =   0.0625000
        k(   57) = (  -0.2540581  -0.4513715  -0.2970830), wk =   0.0312500
        k(   58) = (   0.0000000  -0.3868899   0.0000000), wk =   0.0156250
        k(   59) = (   0.0000000  -0.3868899   0.1485415), wk =   0.0312500
        k(   60) = (   0.0000000  -0.3868899  -0.2970830), wk =   0.0156250
        k(   61) = (  -2.0324647   0.0000000   0.0000000), wk =   0.0078125
        k(   62) = (  -2.0324647   0.0000000   0.1485415), wk =   0.0156250
        k(   63) = (  -2.0324647   0.0000000  -0.2970830), wk =   0.0078125

     Dense  grid:  1153415 G-vectors     FFT dimensions: ( 144, 144, 240)

     Smooth grid:   291749 G-vectors     FFT dimensions: (  90,  90, 150)

     Estimated max dynamical RAM per process >     657.19 MB

     Estimated total dynamical RAM >       6.42 GB

     Initial potential from superposition of free atoms

     starting charge   83.99353, renormalised to   84.00000
     Starting wfcs are   66 randomized atomic wfcs
     Checking if some PAW data can be deallocated... 

     total cpu time spent up to now is       24.1 secs

     Self-consistent Calculation

     iteration #  1     ecut=    80.00 Ry     beta= 0.70
     Davidson diagonalization with overlap
     ethr =  1.00E-02,  avg # of iterations =  2.1

     Threshold (ethr) on eigenvalues was too large:
     Diagonalizing with lowered threshold

     Davidson diagonalization with overlap
     ethr =  4.17E-04,  avg # of iterations =  4.0

     total cpu time spent up to now is      129.4 secs

     total energy              =   -4240.73137991 Ry
     estimated scf accuracy    <       0.43532371 Ry

     iteration #  2     ecut=    80.00 Ry     beta= 0.70
     Davidson diagonalization with overlap
     ethr =  5.18E-04,  avg # of iterations =  7.8

     total cpu time spent up to now is      202.7 secs

     total energy              =   -4240.63591273 Ry
     estimated scf accuracy    <       2.06623241 Ry

     iteration #  3     ecut=    80.00 Ry     beta= 0.70
     Davidson diagonalization with overlap
     ethr =  5.18E-04,  avg # of iterations =  5.2

     total cpu time spent up to now is      253.8 secs

     WARNING: integrated charge=    83.99976682, expected=    84.00000000

     total energy              =   -4240.93842557 Ry
     estimated scf accuracy    <       0.01012776 Ry

     iteration #  4     ecut=    80.00 Ry     beta= 0.70
     Davidson diagonalization with overlap
     c_bands:  2 eigenvalues not converged
     c_bands:  1 eigenvalues not converged
     c_bands:  1 eigenvalues not converged
     c_bands:  2 eigenvalues not converged
     c_bands:  1 eigenvalues not converged
     c_bands:  4 eigenvalues not converged
     c_bands:  2 eigenvalues not converged
     c_bands:  1 eigenvalues not converged
     c_bands:  1 eigenvalues not converged
     c_bands:  2 eigenvalues not converged
     c_bands:  2 eigenvalues not converged
     c_bands:  1 eigenvalues not converged
     c_bands:  1 eigenvalues not converged
     c_bands:  1 eigenvalues not converged
     c_bands:  2 eigenvalues not converged
     c_bands:  1 eigenvalues not converged
     c_bands:  2 eigenvalues not converged
     c_bands:  2 eigenvalues not converged
     c_bands:  2 eigenvalues not converged
     c_bands:  1 eigenvalues not converged
     c_bands:  1 eigenvalues not converged
     c_bands:  1 eigenvalues not converged
     ethr =  1.21E-05,  avg # of iterations = 17.8

     total cpu time spent up to now is      354.1 secs

     WARNING: integrated charge=    83.99982545, expected=    84.00000000

     total energy              =   -4240.95045167 Ry
     estimated scf accuracy    <       0.06351363 Ry

     iteration #  5     ecut=    80.00 Ry     beta= 0.70
     Davidson diagonalization with overlap
     ethr =  1.21E-05,  avg # of iterations =  7.2

     total cpu time spent up to now is      405.5 secs

     WARNING: integrated charge=    83.99991123, expected=    84.00000000

     total energy              =   -4240.95227733 Ry
     estimated scf accuracy    <       0.01213236 Ry

     iteration #  6     ecut=    80.00 Ry     beta= 0.70
     Davidson diagonalization with overlap
     ethr =  1.21E-05,  avg # of iterations =  3.4

     total cpu time spent up to now is      447.0 secs

     WARNING: integrated charge=    83.99945940, expected=    84.00000000

     total energy              =   -4240.95358965 Ry
     estimated scf accuracy    <       0.00143071 Ry

     iteration #  7     ecut=    80.00 Ry     beta= 0.70
     Davidson diagonalization with overlap
     c_bands:  2 eigenvalues not converged
     c_bands:  1 eigenvalues not converged
     ethr =  1.70E-06,  avg # of iterations = 11.1

     total cpu time spent up to now is      515.7 secs

     WARNING: integrated charge=    83.99904568, expected=    84.00000000

     total energy              =   -4240.95453662 Ry
     estimated scf accuracy    <       0.00151597 Ry

     iteration #  8     ecut=    80.00 Ry     beta= 0.70
     Davidson diagonalization with overlap
     ethr =  1.70E-06,  avg # of iterations =  2.1

     total cpu time spent up to now is      552.7 secs

     WARNING: integrated charge=    83.99896510, expected=    84.00000000

     total energy              =   -4240.95442006 Ry
     estimated scf accuracy    <       0.00023271 Ry

     iteration #  9     ecut=    80.00 Ry     beta= 0.70
     Davidson diagonalization with overlap
     ethr =  2.77E-07,  avg # of iterations =  6.3

     total cpu time spent up to now is      603.8 secs

     WARNING: integrated charge=    83.99903113, expected=    84.00000000

     total energy              =   -4240.95436002 Ry
     estimated scf accuracy    <       0.00002822 Ry

     iteration # 10     ecut=    80.00 Ry     beta= 0.70
     Davidson diagonalization with overlap
     ethr =  3.36E-08,  avg # of iterations =  3.3

     total cpu time spent up to now is      644.6 secs

     WARNING: integrated charge=    83.99906538, expected=    84.00000000

     total energy              =   -4240.95438745 Ry
     estimated scf accuracy    <       0.00000440 Ry

     iteration # 11     ecut=    80.00 Ry     beta= 0.70
     Davidson diagonalization with overlap
     ethr =  5.24E-09,  avg # of iterations =  6.2

     total cpu time spent up to now is      698.0 secs

     WARNING: integrated charge=    83.99908246, expected=    84.00000000

     total energy              =   -4240.95440071 Ry
     estimated scf accuracy    <       0.00000114 Ry

     iteration # 12     ecut=    80.00 Ry     beta= 0.70
     Davidson diagonalization with overlap
     ethr =  1.35E-09,  avg # of iterations =  2.7

     total cpu time spent up to now is      737.7 secs

     WARNING: integrated charge=    83.99909537, expected=    84.00000000

     total energy              =   -4240.95439512 Ry
     estimated scf accuracy    <       0.00000011 Ry

     iteration # 13     ecut=    80.00 Ry     beta= 0.70
     Davidson diagonalization with overlap
     ethr =  1.34E-10,  avg # of iterations =  8.1

     total cpu time spent up to now is      797.8 secs

     WARNING: integrated charge=    83.99909455, expected=    84.00000000

     total energy              =   -4240.95439337 Ry
     estimated scf accuracy    <       0.00000008 Ry

     iteration # 14     ecut=    80.00 Ry     beta= 0.70
     Davidson diagonalization with overlap
     ethr =  9.65E-11,  avg # of iterations =  1.6

     total cpu time spent up to now is      834.3 secs

     WARNING: integrated charge=    83.99909172, expected=    84.00000000

     total energy              =   -4240.95439434 Ry
     estimated scf accuracy    <       0.00000003 Ry

     iteration # 15     ecut=    80.00 Ry     beta= 0.70
     Davidson diagonalization with overlap
     ethr =  3.44E-11,  avg # of iterations =  5.7

     total cpu time spent up to now is      881.8 secs

     WARNING: integrated charge=    83.99909197, expected=    84.00000000

     total energy              =   -4240.95439554 Ry
     estimated scf accuracy    <          1.4E-09 Ry

     iteration # 16     ecut=    80.00 Ry     beta= 0.70
     Davidson diagonalization with overlap
     ethr =  1.70E-12,  avg # of iterations =  6.1

     total cpu time spent up to now is      932.1 secs

     WARNING: integrated charge=    83.99909205, expected=    84.00000000

     total energy              =   -4240.95439536 Ry
     estimated scf accuracy    <          1.0E-09 Ry

     iteration # 17     ecut=    80.00 Ry     beta= 0.70
     Davidson diagonalization with overlap
     ethr =  1.24E-12,  avg # of iterations =  3.5

     total cpu time spent up to now is      971.0 secs

     WARNING: integrated charge=    83.99909216, expected=    84.00000000

     total energy              =   -4240.95439519 Ry
     estimated scf accuracy    <          1.0E-10 Ry

     iteration # 18     ecut=    80.00 Ry     beta= 0.70
     Davidson diagonalization with overlap
     ethr =  1.22E-13,  avg # of iterations =  6.6

     total cpu time spent up to now is     1026.6 secs

     End of self-consistent calculation

          k = 0.0000 0.0000 0.0000 ( 36359 PWs)   bands (ev):

   -44.1347 -44.1347 -22.2599 -22.2599 -22.1671 -22.1670 -22.0653 -22.0652
    -7.8857  -7.5354  -7.1295  -6.8712  -6.2921  -5.4113  -4.9138  -4.8354
    -4.7844  -3.8307   0.3322   0.7506   0.7749   1.1232   1.4405   1.5317
     2.2407   2.3273   2.5174   2.7446   2.9408   3.0096   3.2610   3.3970
     3.7093   3.8075   3.9815   4.0709   4.2562   4.3379   4.3654   4.6799
     4.8343   5.4813   5.6373   5.8455   5.8498   5.9394   6.1349   6.8249
     6.9937   7.2718

          k = 0.0000 0.0000 0.1485 ( 36415 PWs)   bands (ev):

   -44.1347 -44.1347 -22.2599 -22.2599 -22.1671 -22.1670 -22.0653 -22.0652
    -7.8517  -7.6202  -7.0530  -6.8890  -6.2164  -5.6596  -4.8343  -4.7929
    -4.6370  -3.9459   0.3994   0.8095   0.9013   1.0023   1.0814   1.9083
     2.0563   2.2672   2.4481   2.8024   2.9259   3.1124   3.3961   3.4030
     3.7114   3.8694   3.9617   4.0740   4.1929   4.3593   4.3825   4.6811
     4.7661   4.9803   5.8131   5.9412   5.9435   6.0391   6.4913   6.6332
     6.8145   7.1879

          k = 0.0000 0.0000-0.2971 ( 36410 PWs)   bands (ev):

   -44.1347 -44.1347 -22.2599 -22.2599 -22.1670 -22.1670 -22.0652 -22.0652
    -7.7553  -7.7553  -6.9482  -6.9482  -5.9911  -5.9911  -4.8132  -4.8132
    -4.2475  -4.2475   0.6166   0.6166   0.9299   0.9299   1.3562   1.3562
     2.3424   2.3424   2.6332   2.6332   2.8794   2.8794   3.5091   3.5091
     3.8968   3.8968   4.0282   4.0282   4.3468   4.3468   4.3913   4.3913
     4.6983   4.6983   5.9286   5.9286   6.2238   6.2238   6.4306   6.4306
     6.9703   6.9703

          k = 0.2541 0.0645 0.0000 ( 36396 PWs)   bands (ev):

   -44.1343 -44.1343 -22.2580 -22.2579 -22.1768 -22.1768 -22.0641 -22.0640
    -7.7669  -7.4216  -7.0593  -6.8233  -6.2305  -5.3658  -4.9330  -4.7922
    -4.7404  -3.9859   0.4178   0.8756   0.9034   1.2396   1.2431   1.4192
     1.7630   1.8452   1.9738   2.5693   2.5943   3.1725   3.3012   3.7249
     3.7522   3.7560   3.8167   3.8306   4.0304   4.2476   4.2959   4.3104
     4.4916   4.5728   5.8277   5.9783   6.2133   6.5848   6.5910   6.7377
     7.0144   7.1807

          k = 0.2541 0.0645 0.1485 ( 36423 PWs)   bands (ev):

   -44.1343 -44.1343 -22.2580 -22.2579 -22.1768 -22.1768 -22.0641 -22.0640
    -7.7336  -7.5061  -6.9877  -6.8395  -6.1530  -5.6061  -4.8077  -4.7508
    -4.6602  -4.0777   0.4731   0.9278   0.9384   0.9588   1.1891   1.4174
     1.7690   2.0530   2.2286   2.5546   2.5788   2.9514   3.3465   3.3592
     3.5590   3.7788   3.9342   3.9557   4.0323   4.1582   4.3339   4.3481
     4.6836   4.8428   5.8463   5.9375   6.1665   6.2609   6.4082   6.7451
     7.2218   7.2945

          k = 0.2541 0.0645-0.2971 ( 36436 PWs)   bands (ev):

   -44.1343 -44.1343 -22.2579 -22.2579 -22.1768 -22.1768 -22.0641 -22.0641
    -7.6390  -7.6390  -6.8927  -6.8927  -5.9283  -5.9283  -4.7760  -4.7760
    -4.3269  -4.3269   0.6491   0.6491   1.0299   1.0299   1.1625   1.1625
     2.0898   2.0898   2.4764   2.4764   2.6687   2.6687   3.1968   3.1968
     3.6358   3.6358   3.9466   3.9466   4.1141   4.1141   4.3563   4.3563
     5.0214   5.0214   5.7817   5.7817   6.1432   6.1432   6.4468   6.4468
     7.4032   7.4032

          k = 0.5081 0.1290 0.0000 ( 36499 PWs)   bands (ev):

   -44.1335 -44.1334 -22.2532 -22.2532 -22.2002 -22.2002 -22.0613 -22.0613
    -7.4259  -7.0902  -6.8931  -6.6989  -6.0431  -5.2618  -5.0537  -4.6801
    -4.6319  -4.4483   0.3768   0.5986   0.6380   1.1978   1.2289   1.3934
     1.6489   1.6971   1.9512   2.1039   2.1643   2.2619   2.4395   3.3827
     3.4701   3.5090   3.5465   3.5892   3.7724   3.8706   3.9336   4.1818
     4.4058   5.0424   5.6053   6.0633   6.1183   6.5906   6.6099   6.9585
     7.4488   7.5639

          k = 0.5081 0.1290 0.1485 ( 36476 PWs)   bands (ev):

   -44.1334 -44.1334 -22.2532 -22.2532 -22.2002 -22.2002 -22.0613 -22.0613
    -7.3948  -7.1792  -6.8267  -6.7116  -5.9655  -5.4771  -4.8871  -4.6619
    -4.6452  -4.4756   0.3885   0.6217   0.7569   0.9948   1.2530   1.3558
     1.4287   1.5632   2.0174   2.0958   2.3508   2.4551   2.8081   3.4034
     3.4227   3.4699   3.5233   3.5948   3.7155   3.7523   3.8501   4.2335
     4.3137   4.5015   6.1498   6.1871   6.3324   6.5920   6.6538   6.8237
     7.2881   7.5113

          k = 0.5081 0.1290-0.2971 ( 36466 PWs)   bands (ev):

   -44.1334 -44.1334 -22.2532 -22.2532 -22.2002 -22.2002 -22.0613 -22.0613
    -7.3061  -7.3061  -6.7523  -6.7523  -5.7564  -5.7564  -4.7400  -4.7400
    -4.5563  -4.5563   0.4980   0.4980   1.0211   1.0211   1.0849   1.0849
     1.4232   1.4232   2.0578   2.0578   2.7023   2.7023   3.1643   3.1643
     3.4010   3.4010   3.5562   3.5562   3.7162   3.7162   3.8398   3.8398
     4.3140   4.3140   6.3916   6.3916   6.5610   6.5610   6.8384   6.8384
     7.1493   7.1493

          k = 0.7622 0.1934 0.0000 ( 36521 PWs)   bands (ev):

   -44.1326 -44.1325 -22.2484 -22.2484 -22.2235 -22.2235 -22.0585 -22.0585
    -6.9511  -6.7404  -6.5770  -6.5025  -5.7721  -5.3999  -5.2075  -5.1137
    -4.5556  -4.5191   0.0125   0.0158   0.4817   1.0004   1.0228   1.2728
     1.4830   1.6033   1.9736   2.0934   2.2437   2.3448   2.4198   2.7919
     2.8999   3.2653   3.3417   3.4562   3.5822   3.6739   3.7135   3.8041
     3.8320   4.5650   5.9303   6.3387   6.3968   6.8520   6.8651   6.9500
     7.3158   7.6224

          k = 0.7622 0.1934 0.1485 ( 36503 PWs)   bands (ev):

   -44.1325 -44.1325 -22.2484 -22.2484 -22.2235 -22.2235 -22.0585 -22.0585
    -6.9279  -6.7845  -6.5582  -6.5099  -5.7165  -5.4562  -5.1919  -5.1267
    -4.5470  -4.5219   0.0019   0.1980   0.3584   0.8940   1.0001   1.2319
     1.4954   1.6225   1.9151   2.0576   2.1281   2.6188   2.6899   2.8558
     2.8918   3.0808   3.2712   3.3890   3.5264   3.6226   3.6612   3.9329
     3.9746   4.5197   5.7099   6.3569   6.6609   6.7628   6.9314   6.9854
     7.0932   7.5921

          k = 0.7622 0.1934-0.2971 ( 36522 PWs)   bands (ev):

   -44.1325 -44.1325 -22.2484 -22.2484 -22.2235 -22.2235 -22.0585 -22.0585
    -6.8647  -6.8647  -6.5301  -6.5301  -5.5864  -5.5864  -5.1584  -5.1584
    -4.5317  -4.5317   0.1381   0.1381   0.5389   0.5389   1.0828   1.0828
     1.5660   1.5660   2.0139   2.0139   2.3830   2.3830   2.8216   2.8216
     2.9870   2.9870   3.3171   3.3171   3.5960   3.5960   3.8930   3.8930
     4.0857   4.0857   6.1691   6.1691   6.4572   6.4572   6.9894   6.9894
     7.4441   7.4441

          k =-1.0162-0.2579 0.0000 ( 36506 PWs)   bands (ev):

   -44.1322 -44.1322 -22.2463 -22.2463 -22.2332 -22.2332 -22.0574 -22.0574
    -6.7175  -6.6973  -6.0168  -6.0057  -5.9667  -5.9597  -5.3195  -5.3189
    -4.4984  -4.4725  -0.0306  -0.0084   0.2891   0.3107   1.0119   1.0210
     1.4682   1.6688   2.2322   2.3916   2.4021   2.4166   2.8052   2.8071
     2.8153   2.8364   3.2090   3.2589   3.3194   3.4071   3.4883   3.7000
     3.8002   4.0936   6.5750   6.5809   6.5975   6.6579   7.0364   7.1338
     7.1394   7.1680

          k =-1.0162-0.2579 0.1485 ( 36506 PWs)   bands (ev):

   -44.1322 -44.1322 -22.2463 -22.2463 -22.2332 -22.2332 -22.0574 -22.0574
    -6.7136  -6.6993  -6.0388  -6.0309  -5.9432  -5.9383  -5.3166  -5.3162
    -4.4978  -4.4795  -0.1279  -0.1211   0.5065   0.5137   1.0093   1.0254
     1.4638   1.5949   1.9990   2.1023   2.3722   2.3982   2.6964   2.6991
     2.9386   3.0361   3.0972   3.1936   3.5553   3.5717   3.6432   3.7531
     4.0286   4.1514   6.0480   6.0651   6.4977   6.5737   7.1202   7.1414
     7.3388   7.3915

          k =-1.0162-0.2579-0.2971 ( 36528 PWs)   bands (ev):

   -44.1322 -44.1322 -22.2463 -22.2463 -22.2332 -22.2332 -22.0574 -22.0574
    -6.7054  -6.7054  -6.0505  -6.0505  -5.9264  -5.9264  -5.3135  -5.3135
    -4.4920  -4.4920  -0.1878  -0.1878   0.7519   0.7519   0.9553   0.9553
     1.5246   1.5246   1.7786   1.7786   2.3723   2.3723   2.7683   2.7683
     2.8943   2.8943   3.1658   3.1658   3.6346   3.6346   3.8050   3.8050
     4.3612   4.3612   5.6129   5.6129   6.4496   6.4496   7.1520   7.1520
     7.4475   7.4475

          k = 0.5081 0.0000 0.0000 ( 36503 PWs)   bands (ev):

   -44.1334 -44.1334 -22.2532 -22.2532 -22.2002 -22.2002 -22.0613 -22.0613
    -7.4297  -7.0908  -6.8940  -6.6951  -6.0396  -5.2619  -5.0509  -4.6744
    -4.6387  -4.4478   0.3823   0.6096   0.6213   1.1932   1.2190   1.3640
     1.6474   1.6939   1.9374   2.1103   2.1717   2.2352   2.4390   3.3734
     3.4935   3.5101   3.5760   3.5788   3.7796   3.9181   3.9253   4.2191
     4.4078   5.0380   5.6111   6.0406   6.1542   6.5523   6.5583   6.9944
     7.4632   7.5795

          k = 0.5081 0.0000 0.1485 ( 36453 PWs)   bands (ev):

   -44.1334 -44.1334 -22.2532 -22.2532 -22.2002 -22.2002 -22.0613 -22.0613
    -7.3984  -7.1814  -6.8255  -6.7079  -5.9630  -5.4769  -4.8827  -4.6635
    -4.6447  -4.4767   0.3909   0.6164   0.7577   0.9981   1.2504   1.3491
     1.3968   1.5424   2.0148   2.1057   2.3821   2.4008   2.8047   3.3976
     3.4652   3.4833   3.4897   3.6041   3.7076   3.8236   3.8369   4.2747
     4.3245   4.4934   6.1427   6.1968   6.3509   6.5442   6.6168   6.8558
     7.3082   7.5206

          k = 0.5081 0.0000-0.2971 ( 36452 PWs)   bands (ev):

   -44.1334 -44.1334 -22.2532 -22.2532 -22.2002 -22.2002 -22.0613 -22.0613
    -7.3093  -7.3093  -6.7491  -6.7491  -5.7554  -5.7554  -4.7361  -4.7361
    -4.5591  -4.5591   0.4957   0.4957   1.0221   1.0221   1.0935   1.0935
     1.3855   1.3855   2.0602   2.0602   2.6932   2.6932   3.1556   3.1556
     3.4045   3.4045   3.5708   3.5708   3.7444   3.7444   3.8382   3.8382
     4.3343   4.3343   6.4073   6.4073   6.5249   6.5249   6.8560   6.8560
     7.1503   7.1503

          k = 0.7622 0.0645 0.0000 ( 36505 PWs)   bands (ev):

   -44.1325 -44.1325 -22.2484 -22.2484 -22.2235 -22.2235 -22.0585 -22.0585
    -6.9594  -6.7380  -6.5784  -6.4951  -5.7721  -5.3969  -5.2081  -5.1130
    -4.5460  -4.5297   0.0119   0.0225   0.4962   1.0113   1.0321   1.2868
     1.4464   1.5654   1.9429   2.1126   2.2611   2.3256   2.3574   2.7668
     2.8885   3.3138   3.3612   3.4955   3.5899   3.6353   3.7023   3.8285
     3.8476   4.5975   5.9278   6.3283   6.3948   6.8371   6.9088   6.9094
     7.3310   7.6401

          k = 0.7622 0.0645 0.1485 ( 36509 PWs)   bands (ev):

   -44.1325 -44.1325 -22.2484 -22.2484 -22.2235 -22.2235 -22.0585 -22.0585
    -6.9357  -6.7863  -6.5552  -6.5025  -5.7169  -5.4552  -5.1910  -5.1258
    -4.5404  -4.5293   0.0080   0.1972   0.3675   0.8887   1.0228   1.2470
     1.4630   1.6217   1.9454   1.9910   2.0559   2.6322   2.6788   2.8452
     2.8722   3.0843   3.3241   3.3959   3.5489   3.6111   3.6536   3.9613
     3.9942   4.5162   5.7350   6.3356   6.6730   6.7634   6.9374   6.9920
     7.0668   7.6117

          k = 0.7622 0.0645-0.2971 ( 36472 PWs)   bands (ev):

   -44.1325 -44.1325 -22.2484 -22.2484 -22.2235 -22.2235 -22.0585 -22.0585
    -6.8706  -6.8706  -6.5235  -6.5235  -5.5869  -5.5869  -5.1570  -5.1570
    -4.5319  -4.5319   0.1458   0.1458   0.5319   0.5319   1.1052   1.1052
     1.5597   1.5597   1.9630   1.9630   2.3622   2.3622   2.8238   2.8238
     2.9721   2.9721   3.3751   3.3751   3.5932   3.5932   3.8798   3.8798
     4.1029   4.1029   6.1948   6.1948   6.4576   6.4576   6.9573   6.9573
     7.4717   7.4717

          k = 1.0162 0.1290 0.0000 ( 36514 PWs)   bands (ev):

   -44.1322 -44.1322 -22.2463 -22.2463 -22.2332 -22.2332 -22.0574 -22.0574
    -6.7175  -6.6973  -6.0166  -6.0059  -5.9667  -5.9597  -5.3195  -5.3189
    -4.4984  -4.4725  -0.0364  -0.0025   0.2852   0.3147   1.0053   1.0287
     1.4743   1.6594   2.2309   2.3929   2.3970   2.4160   2.7985   2.8043
     2.8089   2.8702   3.2272   3.2416   3.2998   3.3950   3.5314   3.6795
     3.7855   4.1076   6.5636   6.5758   6.6095   6.6649   7.0559   7.1347
     7.1415   7.1540

          k = 1.0162 0.1290 0.1485 ( 36524 PWs)   bands (ev):

   -44.1322 -44.1322 -22.2463 -22.2463 -22.2332 -22.2332 -22.0574 -22.0574
    -6.7136  -6.6993  -6.0387  -6.0310  -5.9432  -5.9384  -5.3166  -5.3162
    -4.4978  -4.4795  -0.1302  -0.1192   0.5078   0.5129   1.0110   1.0241
     1.4693   1.5894   2.0110   2.0855   2.3723   2.3935   2.6570   2.7453
     2.9497   3.0476   3.0888   3.1842   3.5272   3.6062   3.6445   3.7447
     4.0079   4.1708   6.0408   6.0759   6.4945   6.5763   7.1253   7.1406
     7.3467   7.3844

          k = 1.0162 0.1290-0.2971 ( 36516 PWs)   bands (ev):

   -44.1322 -44.1322 -22.2463 -22.2463 -22.2332 -22.2332 -22.0574 -22.0574
    -6.7054  -6.7054  -6.0505  -6.0505  -5.9264  -5.9264  -5.3135  -5.3135
    -4.4920  -4.4920  -0.1880  -0.1880   0.7523   0.7523   0.9552   0.9552
     1.5256   1.5256   1.7794   1.7794   2.3636   2.3636   2.7522   2.7522
     2.9358   2.9358   3.1463   3.1463   3.6377   3.6377   3.8020   3.8020
     4.3617   4.3617   5.6153   5.6153   6.4490   6.4490   7.1535   7.1535
     7.4483   7.4484

          k =-0.7622-0.3224 0.0000 ( 36511 PWs)   bands (ev):

   -44.1326 -44.1325 -22.2485 -22.2484 -22.2235 -22.2235 -22.0585 -22.0585
    -6.9385  -6.7447  -6.5750  -6.5129  -5.7723  -5.4043  -5.2066  -5.1148
    -4.5631  -4.5103  -0.0013   0.0214   0.4614   0.9679   1.0389   1.2555
     1.5041   1.6668   2.0363   2.0696   2.2575   2.3705   2.4495   2.8282
     2.9124   3.2095   3.3261   3.4536   3.5602   3.6456   3.6674   3.7914
     3.8849   4.5099   5.9340   6.3320   6.4324   6.7698   6.9084   7.0161
     7.2844   7.5994

          k =-0.7622-0.3224 0.1485 ( 36492 PWs)   bands (ev):

   -44.1325 -44.1325 -22.2484 -22.2484 -22.2235 -22.2235 -22.0585 -22.0585
    -6.9161  -6.7824  -6.5626  -6.5205  -5.7160  -5.4577  -5.1931  -5.1280
    -4.5522  -4.5157  -0.0070   0.2004   0.3449   0.8950   0.9833   1.2117
     1.5302   1.6276   1.8973   2.1590   2.2084   2.6058   2.6871   2.8740
     2.9089   3.0983   3.2103   3.3723   3.4752   3.6024   3.7084   3.8808
     3.9590   4.5232   5.6765   6.3910   6.6334   6.7599   6.9003   7.0295
     7.1216   7.5532

          k =-0.7622-0.3224-0.2971 ( 36508 PWs)   bands (ev):

   -44.1325 -44.1325 -22.2484 -22.2484 -22.2235 -22.2235 -22.0585 -22.0585
    -6.8560  -6.8560  -6.5399  -6.5399  -5.5856  -5.5856  -5.1604  -5.1604
    -4.5313  -4.5313   0.1274   0.1274   0.5483   0.5483   1.0565   1.0565
     1.5744   1.5744   2.0716   2.0716   2.4310   2.4310   2.8194   2.8194
     3.0090   3.0090   3.2346   3.2346   3.5941   3.5941   3.8927   3.8927
     4.0764   4.0764   6.1357   6.1357   6.4552   6.4552   7.0420   7.0420
     7.3969   7.3969

          k =-0.5081-0.2579 0.0000 ( 36480 PWs)   bands (ev):

   -44.1334 -44.1334 -22.2532 -22.2532 -22.2002 -22.2002 -22.0613 -22.0613
    -7.4165  -7.0886  -6.8915  -6.7076  -6.0517  -5.2616  -5.0606  -4.6886
    -4.6204  -4.4494   0.3639   0.5960   0.6504   1.2088   1.2633   1.4651
     1.6502   1.7140   1.9863   2.0876   2.1582   2.3069   2.4383   3.3922
     3.4035   3.4729   3.5506   3.5878   3.7510   3.7665   3.9544   4.1038
     4.3969   5.0513   5.5936   6.0254   6.1271   6.6886   6.7315   6.8733
     7.4033   7.5289

          k =-0.5081-0.2579 0.1485 ( 36485 PWs)   bands (ev):

   -44.1334 -44.1334 -22.2532 -22.2532 -22.2002 -22.2002 -22.0613 -22.0613
    -7.3857  -7.1741  -6.8303  -6.7203  -5.9717  -5.4775  -4.8974  -4.6584
    -4.6461  -4.4728   0.3828   0.6339   0.7534   0.9871   1.2666   1.3679
     1.5091   1.6231   2.0152   2.0789   2.3349   2.5198   2.8160   3.3307
     3.4222   3.4639   3.5505   3.5759   3.6151   3.7388   3.8528   4.1521
     4.2759   4.5163   6.1375   6.1878   6.2940   6.6940   6.7497   6.7605
     7.2332   7.4920

          k =-0.5081-0.2579-0.2971 ( 36478 PWs)   bands (ev):

   -44.1334 -44.1334 -22.2532 -22.2532 -22.2002 -22.2002 -22.0613 -22.0613
    -7.2983  -7.2983  -6.7601  -6.7601  -5.7586  -5.7586  -4.7491  -4.7491
    -4.5499  -4.5499   0.5034   0.5034   1.0176   1.0176   1.0703   1.0703
     1.5175   1.5175   2.0476   2.0476   2.7290   2.7290   3.1737   3.1737
     3.3848   3.3848   3.4985   3.4985   3.6881   3.6881   3.8401   3.8401
     4.2657   4.2657   6.3555   6.3555   6.6378   6.6378   6.8004   6.8004
     7.1542   7.1542

          k =-0.2541-0.1934 0.0000 ( 36410 PWs)   bands (ev):

   -44.1343 -44.1343 -22.2580 -22.2579 -22.1768 -22.1768 -22.0641 -22.0640
    -7.7605  -7.4205  -7.0537  -6.8295  -6.2434  -5.3676  -4.9413  -4.7997
    -4.7285  -3.9869   0.4433   0.8825   0.9726   1.2392   1.2680   1.4536
     1.7872   1.8695   1.9751   2.5367   2.5844   3.2352   3.2726   3.6621
     3.6938   3.7290   3.7850   3.8635   3.8909   4.1957   4.2709   4.2927
     4.3844   4.6000   5.8830   6.0080   6.2798   6.5835   6.6360   6.7555
     6.9957   7.0999

          k =-0.2541-0.1934 0.1485 ( 36427 PWs)   bands (ev):

   -44.1343 -44.1343 -22.2580 -22.2579 -22.1768 -22.1768 -22.0641 -22.0640
    -7.7274  -7.5027  -6.9864  -6.8453  -6.1632  -5.6085  -4.8258  -4.7440
    -4.6540  -4.0777   0.4968   0.9299   0.9558   1.0368   1.2228   1.4321
     1.7761   2.0561   2.2574   2.5338   2.5654   2.9362   3.3681   3.3997
     3.5687   3.6763   3.7953   3.8999   3.9859   4.1342   4.2904   4.2999
     4.6754   4.8410   5.8360   5.9610   6.1611   6.3307   6.4764   6.7463
     7.1817   7.2837

          k =-0.2541-0.1934-0.2971 ( 36422 PWs)   bands (ev):

   -44.1343 -44.1343 -22.2579 -22.2579 -22.1768 -22.1768 -22.0641 -22.0641
    -7.6336  -7.6336  -6.8964  -6.8964  -5.9336  -5.9336  -4.7807  -4.7807
    -4.3248  -4.3248   0.6680   0.6680   1.0866   1.0866   1.1737   1.1737
     2.0924   2.0924   2.4713   2.4713   2.6680   2.6680   3.2140   3.2140
     3.6185   3.6185   3.8232   3.8232   4.0934   4.0934   4.3031   4.3031
     5.0324   5.0324   5.7452   5.7452   6.1587   6.1587   6.5174   6.5174
     7.3861   7.3861

          k = 0.0000-0.1290 0.0000 ( 36417 PWs)   bands (ev):

   -44.1347 -44.1347 -22.2599 -22.2599 -22.1671 -22.1670 -22.0653 -22.0652
    -7.8823  -7.5348  -7.1257  -6.8745  -6.3002  -5.4128  -4.9190  -4.8411
    -4.7758  -3.8313   0.3509   0.7549   0.8159   1.1327   1.4517   1.5601
     2.2414   2.3273   2.5166   2.7517   2.9418   3.0141   3.2991   3.3879
     3.6603   3.7965   3.8619   4.0129   4.2564   4.2836   4.3176   4.6795
     4.8231   5.4487   5.6600   5.8574   5.8661   5.9884   6.1834   6.8224
     6.9939   7.2352

          k = 0.0000-0.1290 0.1485 ( 36419 PWs)   bands (ev):

   -44.1347 -44.1347 -22.2599 -22.2599 -22.1671 -22.1670 -22.0653 -22.0652
    -7.8485  -7.6184  -7.0515  -6.8920  -6.2230  -5.6614  -4.8446  -4.7881
    -4.6343  -3.9460   0.4173   0.8514   0.9104   1.0071   1.1017   1.9137
     2.0735   2.2679   2.4484   2.8075   2.9275   3.1202   3.3713   3.4273
     3.7021   3.8505   3.8592   3.9933   4.1901   4.3062   4.3372   4.6804
     4.7592   4.9718   5.8253   5.9595   5.9874   6.0443   6.5113   6.6310
     6.8154   7.1684

          k = 0.0000-0.1290-0.2971 ( 36464 PWs)   bands (ev):

   -44.1347 -44.1347 -22.2599 -22.2599 -22.1670 -22.1670 -22.0652 -22.0652
    -7.7525  -7.7525  -6.9497  -6.9497  -5.9948  -5.9948  -4.8155  -4.8155
    -4.2466  -4.2466   0.6368   0.6368   0.9538   0.9538   1.3630   1.3630
     2.3431   2.3431   2.6445   2.6445   2.8825   2.8825   3.4989   3.4989
     3.8397   3.8397   4.0207   4.0207   4.2514   4.2514   4.4054   4.4054
     4.6962   4.6962   5.9445   5.9445   6.2394   6.2394   6.4333   6.4333
     6.9674   6.9674

          k = 1.0162 0.0000 0.0000 ( 36499 PWs)   bands (ev):

   -44.1322 -44.1322 -22.2463 -22.2463 -22.2332 -22.2332 -22.0574 -22.0574
    -6.7175  -6.6973  -6.0163  -6.0061  -5.9668  -5.9597  -5.3195  -5.3189
    -4.4984  -4.4725  -0.0407   0.0019   0.2822   0.3179   1.0017   1.0334
     1.4811   1.6492   2.2294   2.3928   2.3943   2.4151   2.7946   2.8018
     2.8078   2.8946   3.2487   3.2496   3.2593   3.3783   3.5917   3.6384
     3.7725   4.1203   6.5563   6.5712   6.6172   6.6712   7.0859   7.1296
     7.1358   7.1436

          k = 1.0162 0.0000 0.1485 ( 36485 PWs)   bands (ev):

   -44.1322 -44.1322 -22.2463 -22.2463 -22.2332 -22.2332 -22.0574 -22.0574
    -6.7136  -6.6993  -6.0386  -6.0311  -5.9431  -5.9384  -5.3166  -5.3161
    -4.4978  -4.4795  -0.1318  -0.1179   0.5105   0.5109   1.0134   1.0221
     1.4754   1.5833   2.0339   2.0578   2.3779   2.3835   2.6436   2.7629
     2.9679   3.0657   3.0702   3.1738   3.5150   3.6161   3.6585   3.7323
     3.9911   4.1862   6.0369   6.0835   6.4915   6.5787   7.1324   7.1378
     7.3632   7.3687

          k = 1.0162 0.0000-0.2971 ( 36514 PWs)   bands (ev):

   -44.1322 -44.1322 -22.2463 -22.2463 -22.2332 -22.2332 -22.0574 -22.0574
    -6.7054  -6.7054  -6.0505  -6.0505  -5.9264  -5.9264  -5.3135  -5.3135
    -4.4920  -4.4920  -0.1881  -0.1881   0.7528   0.7528   0.9551   0.9551
     1.5266   1.5266   1.7802   1.7802   2.3552   2.3552   2.7411   2.7411
     2.9794   2.9794   3.1195   3.1195   3.6408   3.6408   3.7990   3.7990
     4.3621   4.3621   5.6177   5.6177   6.4484   6.4484   7.1549   7.1549
     7.4492   7.4492

          k = 1.2703 0.0645 0.0000 ( 36468 PWs)   bands (ev):

   -44.1325 -44.1325 -22.2485 -22.2484 -22.2235 -22.2235 -22.0585 -22.0585
    -6.9286  -6.7487  -6.5736  -6.5202  -5.7724  -5.4073  -5.2059  -5.1156
    -4.5670  -4.5055  -0.0108   0.0254   0.4471   0.9504   1.0501   1.2442
     1.5080   1.7131   2.0545   2.0997   2.2822   2.3883   2.4330   2.8559
     2.9168   3.1647   3.3542   3.4954   3.5144   3.5774   3.6499   3.7414
     3.9691   4.4598   5.9366   6.3269   6.4670   6.7104   6.9418   7.0758
     7.2484   7.5956

          k = 1.2703 0.0645 0.1485 ( 36490 PWs)   bands (ev):

   -44.1325 -44.1325 -22.2484 -22.2484 -22.2235 -22.2235 -22.0585 -22.0585
    -6.9070  -6.7814  -6.5657  -6.5282  -5.7156  -5.4588  -5.1938  -5.1290
    -4.5549  -4.5123  -0.0136   0.2031   0.3348   0.8902   0.9810   1.1984
     1.5475   1.6351   1.8913   2.2322   2.2699   2.5947   2.6721   2.8833
     2.9223   3.1265   3.1709   3.3504   3.4584   3.5546   3.7600   3.8258
     3.9573   4.5243   5.6544   6.4203   6.6040   6.7573   6.8837   7.0790
     7.1340   7.5169

          k = 1.2703 0.0645-0.2971 ( 36480 PWs)   bands (ev):

   -44.1325 -44.1325 -22.2484 -22.2484 -22.2235 -22.2235 -22.0585 -22.0585
    -6.8495  -6.8495  -6.5471  -6.5471  -5.5850  -5.5850  -5.1617  -5.1617
    -4.5311  -4.5311   0.1201   0.1201   0.5546   0.5546   1.0408   1.0408
     1.5804   1.5804   2.1005   2.1005   2.4828   2.4828   2.8205   2.8205
     3.0250   3.0250   3.1697   3.1697   3.5902   3.5902   3.8777   3.8777
     4.0824   4.0824   6.1140   6.1140   6.4532   6.4532   7.0872   7.0872
     7.3546   7.3546

          k =-0.5081-0.3869 0.0000 ( 36463 PWs)   bands (ev):

   -44.1334 -44.1334 -22.2532 -22.2532 -22.2002 -22.2002 -22.0613 -22.0613
    -7.4068  -7.0871  -6.8910  -6.7154  -6.0605  -5.2614  -5.0675  -4.6939
    -4.6122  -4.4506   0.3516   0.6061   0.6442   1.2192   1.3098   1.5504
     1.6537   1.7227   2.0241   2.0701   2.1840   2.3141   2.4328   3.2783
     3.4274   3.4718   3.4957   3.6418   3.6949   3.7386   3.8743   4.1003
     4.3845   5.0569   5.5841   5.9346   6.1935   6.7881   6.7985   6.8564
     7.3299   7.5123

          k =-0.5081-0.3869 0.1485 ( 36477 PWs)   bands (ev):

   -44.1334 -44.1334 -22.2532 -22.2532 -22.2002 -22.2002 -22.0613 -22.0613
    -7.3763  -7.1688  -6.8347  -6.7287  -5.9779  -5.4778  -4.9073  -4.6556
    -4.6468  -4.4702   0.3774   0.6459   0.7466   0.9800   1.2856   1.3788
     1.6043   1.6947   2.0017   2.0632   2.3393   2.5530   2.8249   3.2289
     3.4249   3.4581   3.4984   3.5681   3.6126   3.7303   3.8279   4.1148
     4.2186   4.5285   6.0877   6.2139   6.2708   6.6709   6.8007   6.8855
     7.1604   7.4870

          k =-0.5081-0.3869-0.2971 ( 36492 PWs)   bands (ev):

   -44.1334 -44.1334 -22.2532 -22.2532 -22.2002 -22.2002 -22.0613 -22.0613
    -7.2902  -7.2902  -6.7683  -6.7683  -5.7608  -5.7608  -4.7576  -4.7576
    -4.5440  -4.5440   0.5083   0.5083   1.0130   1.0130   1.0606   1.0606
     1.6270   1.6270   2.0253   2.0253   2.7654   2.7654   3.1396   3.1396
     3.3628   3.3628   3.4578   3.4578   3.6829   3.6829   3.8352   3.8352
     4.2205   4.2205   6.3212   6.3212   6.6773   6.6773   6.7888   6.7888
     7.1753   7.1753

          k =-0.2541-0.3224 0.0000 ( 36485 PWs)   bands (ev):

   -44.1343 -44.1343 -22.2580 -22.2579 -22.1768 -22.1768 -22.0641 -22.0640
    -7.7512  -7.4189  -7.0465  -6.8373  -6.2621  -5.3701  -4.9538  -4.8034
    -4.7178  -3.9883   0.4690   0.8940   1.0929   1.2313   1.3166   1.5249
     1.8234   1.9059   1.9762   2.4643   2.5408   3.2390   3.3409   3.4964
     3.6020   3.6557   3.7455   3.8178   3.9311   4.1444   4.1527   4.2592
     4.3311   4.6108   5.9705   6.0360   6.3416   6.5832   6.7023   6.7827
     6.9208   7.0287

          k =-0.2541-0.3224 0.1485 ( 36445 PWs)   bands (ev):

   -44.1343 -44.1343 -22.2580 -22.2579 -22.1768 -22.1768 -22.0641 -22.0640
    -7.7184  -7.4978  -6.9852  -6.8529  -6.1779  -5.6117  -4.8462  -4.7384
    -4.6462  -4.0777   0.5197   0.9391   0.9746   1.1661   1.2961   1.4558
     1.7936   2.0597   2.3009   2.4676   2.5283   2.9252   3.3885   3.4456
     3.4941   3.5441   3.6650   3.8921   3.9156   4.0841   4.2046   4.2607
     4.6983   4.8214   5.8249   5.9941   6.1588   6.3670   6.5736   6.7469
     7.1421   7.2659

          k =-0.2541-0.3224-0.2971 ( 36442 PWs)   bands (ev):

   -44.1343 -44.1343 -22.2579 -22.2579 -22.1768 -22.1768 -22.0641 -22.0641
    -7.6259  -7.6259  -6.9020  -6.9020  -5.9410  -5.9410  -4.7872  -4.7872
    -4.3217  -4.3217   0.6847   0.6847   1.1579   1.1579   1.2282   1.2282
     2.0986   2.0986   2.4452   2.4452   2.6634   2.6634   3.2399   3.2399
     3.4740   3.4740   3.7965   3.7965   4.0444   4.0444   4.2404   4.2404
     5.0486   5.0486   5.7053   5.7053   6.1488   6.1488   6.6123   6.6123
     7.3654   7.3654

          k = 0.0000-0.2579 0.0000 ( 36445 PWs)   bands (ev):

   -44.1347 -44.1347 -22.2599 -22.2599 -22.1671 -22.1670 -22.0653 -22.0652
    -7.8739  -7.5334  -7.1166  -6.8818  -6.3204  -5.4165  -4.9338  -4.8447
    -4.7629  -3.8326   0.3874   0.7658   0.9268   1.1814   1.4776   1.6223
     2.2432   2.3285   2.5145   2.7694   2.9438   3.0346   3.3167   3.4038
     3.4519   3.6481   3.7694   3.9578   4.1551   4.1825   4.2566   4.6785
     4.7964   5.4022   5.7164   5.8759   5.9192   6.0646   6.2710   6.7896
     6.9941   7.1689

          k = 0.0000-0.2579 0.1485 ( 36452 PWs)   bands (ev):

   -44.1347 -44.1347 -22.2599 -22.2599 -22.1671 -22.1670 -22.0653 -22.0652
    -7.8404  -7.6141  -7.0482  -6.8988  -6.2394  -5.6658  -4.8642  -4.7812
    -4.6285  -3.9463   0.4507   0.9254   0.9565   1.0557   1.1511   1.9288
     2.1140   2.2698   2.4491   2.8207   2.9311   3.1210   3.3093   3.3965
     3.6328   3.6596   3.8342   3.9114   4.1816   4.1831   4.2160   4.6790
     4.7429   4.9625   5.8621   6.0067   6.0441   6.0572   6.5462   6.6103
     6.8176   7.1246

          k = 0.0000-0.2579-0.2971 ( 36454 PWs)   bands (ev):

   -44.1347 -44.1347 -22.2599 -22.2599 -22.1670 -22.1670 -22.0652 -22.0652
    -7.7456  -7.7456  -6.9536  -6.9536  -6.0038  -6.0038  -4.8211  -4.8211
    -4.2445  -4.2445   0.6707   0.6707   1.0388   1.0388   1.3804   1.3804
     2.3449   2.3449   2.6697   2.6697   2.8901   2.8901   3.3786   3.3786
     3.7748   3.7748   4.0023   4.0023   4.1178   4.1178   4.3850   4.3850
     4.6914   4.6914   5.9609   5.9609   6.2740   6.2740   6.4398   6.4398
     6.9479   6.9479

          k = 1.5243 0.0000 0.0000 ( 36439 PWs)   bands (ev):

   -44.1334 -44.1334 -22.2532 -22.2532 -22.2002 -22.2002 -22.0613 -22.0613
    -7.4026  -7.0864  -6.8911  -6.7184  -6.0643  -5.2613  -5.0703  -4.6956
    -4.6093  -4.4510   0.3466   0.6250   0.6253   1.2234   1.3318   1.6009
     1.6819   1.6824   2.0408   2.0678   2.2330   2.2758   2.4290   3.2345
     3.4233   3.4407   3.5041   3.6990   3.7135   3.7239   3.7614   4.1195
     4.3788   5.0579   5.5807   5.8964   6.2238   6.7520   6.8510   6.9127
     7.2847   7.5460

          k = 1.5243 0.0000 0.1485 ( 36476 PWs)   bands (ev):

   -44.1334 -44.1334 -22.2532 -22.2532 -22.2002 -22.2002 -22.0613 -22.0613
    -7.3723  -7.1666  -6.8368  -6.7319  -5.9804  -5.4780  -4.9113  -4.6548
    -4.6468  -4.4691   0.3752   0.6512   0.7425   0.9773   1.2943   1.3831
     1.6599   1.7179   2.0037   2.0442   2.3494   2.5537   2.8292   3.1878
     3.3860   3.4636   3.4819   3.5903   3.6397   3.7209   3.7817   4.1547
     4.1561   4.5333   6.0620   6.2272   6.2651   6.6410   6.8419   6.9540
     7.1134   7.5012

          k = 1.5243 0.0000-0.2971 ( 36508 PWs)   bands (ev):

   -44.1334 -44.1334 -22.2532 -22.2532 -22.2002 -22.2002 -22.0613 -22.0613
    -7.2867  -7.2867  -6.7717  -6.7717  -5.7617  -5.7617  -4.7611  -4.7611
    -4.5417  -4.5417   0.5102   0.5102   1.0109   1.0109   1.0574   1.0574
     1.6821   1.6821   2.0080   2.0080   2.7860   2.7860   3.1017   3.1017
     3.3626   3.3626   3.4494   3.4494   3.6811   3.6811   3.8308   3.8308
     4.2036   4.2036   6.3073   6.3073   6.6743   6.6743   6.7987   6.7987
     7.1913   7.1913

          k =-0.2541-0.4514 0.0000 ( 36444 PWs)   bands (ev):

   -44.1343 -44.1343 -22.2580 -22.2579 -22.1768 -22.1768 -22.0641 -22.0640
    -7.7444  -7.4178  -7.0420  -6.8418  -6.2759  -5.3718  -4.9629  -4.8034
    -4.7126  -3.9892   0.4799   0.9033   1.2129   1.2240   1.3342   1.6100
     1.8505   1.9439   1.9734   2.3847   2.4670   3.2228   3.3544   3.4258
     3.4957   3.6957   3.7629   3.8063   3.8557   4.1046   4.1154   4.1977
     4.3237   4.6177   6.0434   6.0500   6.3696   6.5827   6.7505   6.8005
     6.8328   7.0058

          k =-0.2541-0.4514 0.1485 ( 36461 PWs)   bands (ev):

   -44.1343 -44.1343 -22.2580 -22.2579 -22.1768 -22.1768 -22.0641 -22.0640
    -7.7119  -7.4943  -6.9850  -6.8578  -6.1884  -5.6138  -4.8588  -4.7358
    -4.6414  -4.0777   0.5289   0.9517   0.9784   1.2947   1.3475   1.4840
     1.8187   2.0611   2.3452   2.3925   2.4507   2.9297   3.3231   3.3571
     3.4616   3.5577   3.7280   3.8470   3.8838   3.9645   4.1948   4.2294
     4.7409   4.7855   5.8189   6.0183   6.1654   6.3560   6.6408   6.7410
     7.1286   7.2514

          k =-0.2541-0.4514-0.2971 ( 36490 PWs)   bands (ev):

   -44.1343 -44.1343 -22.2579 -22.2579 -22.1768 -22.1768 -22.0641 -22.0641
    -7.6203  -7.6203  -6.9060  -6.9060  -5.9462  -5.9462  -4.7919  -4.7919
    -4.3195  -4.3195   0.6910   0.6910   1.1732   1.1732   1.3294   1.3294
     2.1072   2.1072   2.3949   2.3949   2.6619   2.6619   3.2409   3.2409
     3.3677   3.3677   3.8293   3.8293   3.9817   3.9817   4.2097   4.2097
     5.0607   5.0607   5.6810   5.6810   6.1320   6.1320   6.6702   6.6702
     7.3541   7.3541

          k = 0.0000-0.3869 0.0000 ( 36477 PWs)   bands (ev):

   -44.1347 -44.1347 -22.2599 -22.2599 -22.1671 -22.1670 -22.0653 -22.0652
    -7.8654  -7.5320  -7.1081  -6.8878  -6.3415  -5.4200  -4.9494  -4.8421
    -4.7554  -3.8340   0.4105   0.7776   1.0778   1.2432   1.5020   1.6923
     2.2450   2.3318   2.5125   2.7885   2.9454   3.0698   3.1228   3.1643
     3.5564   3.5868   3.7418   3.9487   3.9948   4.0234   4.2567   4.6777
     4.7700   5.3756   5.7741   5.8944   5.9844   6.1117   6.3299   6.7099
     6.9942   7.1358

          k = 0.0000-0.3869 0.1485 ( 36452 PWs)   bands (ev):

   -44.1347 -44.1347 -22.2599 -22.2599 -22.1671 -22.1670 -22.0653 -22.0652
    -7.8322  -7.6097  -7.0455  -6.9048  -6.2561  -5.6700  -4.8807  -4.7769
    -4.6233  -3.9465   0.4694   0.9521   1.0222   1.1642   1.2310   1.9466
     2.1546   2.2716   2.4496   2.8351   2.9343   3.0232   3.1159   3.3311
     3.5529   3.6984   3.8088   3.9151   4.0466   4.0688   4.1756   4.6779
     4.7271   4.9600   5.9086   6.0454   6.0699   6.0705   6.5564   6.5736
     6.8199   7.0907

          k = 0.0000-0.3869-0.2971 ( 36454 PWs)   bands (ev):

   -44.1347 -44.1347 -22.2599 -22.2599 -22.1670 -22.1670 -22.0652 -22.0652
    -7.7385  -7.7385  -6.9576  -6.9576  -6.0127  -6.0127  -4.8268  -4.8268
    -4.2423  -4.2423   0.6865   0.6865   1.1678   1.1678   1.3989   1.3989
     2.3467   2.3467   2.6815   2.6815   2.8982   2.8982   3.1613   3.1613
     3.8116   3.8116   3.9835   3.9835   3.9994   3.9994   4.3622   4.3622
     4.6869   4.6869   5.9591   5.9591   6.3019   6.3019   6.4466   6.4466
     6.9183   6.9183

          k =-2.0325 0.0000 0.0000 ( 36452 PWs)   bands (ev):

   -44.1347 -44.1347 -22.2599 -22.2599 -22.1671 -22.1670 -22.0653 -22.0652
    -7.8618  -7.5314  -7.1049  -6.8898  -6.3505  -5.4214  -4.9558  -4.8401
    -4.7532  -3.8345   0.4162   0.7827   1.1986   1.2238   1.5117   1.7350
     2.2457   2.3341   2.5117   2.7969   2.9458   2.9962   3.0484   3.0899
     3.5891   3.6878   3.7301   3.8490   3.9466   3.9650   4.2567   4.6774
     4.7592   5.3676   5.7979   5.9022   6.0190   6.1262   6.3482   6.6613
     6.9942   7.1299

          k =-2.0325 0.0000 0.1485 ( 36456 PWs)   bands (ev):

   -44.1347 -44.1347 -22.2599 -22.2599 -22.1671 -22.1670 -22.0653 -22.0652
    -7.8287  -7.6079  -7.0447  -6.9070  -6.2631  -5.6717  -4.8870  -4.7755
    -4.6214  -3.9465   0.4733   0.9614   1.0413   1.2308   1.2769   1.9548
     2.1740   2.2724   2.4498   2.8414   2.9328   2.9356   2.9974   3.3455
     3.5315   3.7726   3.7981   3.9201   3.9545   4.0062   4.1723   4.6775
     4.7206   4.9598   5.9326   6.0615   6.0717   6.0761   6.5339   6.5733
     6.8208   7.0804

          k =-2.0325 0.0000-0.2971 ( 36460 PWs)   bands (ev):

   -44.1347 -44.1347 -22.2599 -22.2599 -22.1670 -22.1670 -22.0652 -22.0652
    -7.7355  -7.7355  -6.9593  -6.9593  -6.0163  -6.0163  -4.8291  -4.8291
    -4.2414  -4.2414   0.6894   0.6894   1.2369   1.2369   1.4068   1.4068
     2.3474   2.3474   2.6718   2.6718   2.9016   2.9016   3.0684   3.0684
     3.8606   3.8606   3.9279   3.9279   3.9755   3.9755   4.3539   4.3539
     4.6852   4.6852   5.9549   5.9549   6.3114   6.3114   6.4495   6.4496
     6.9048   6.9048

     the Fermi energy is     5.5063 ev

     WARNING: integrated charge=    83.99909218, expected=    84.00000000

!    total energy              =   -4240.95439513 Ry

     total all-electron energy =   -150287.648090 Ry
     estimated scf accuracy    <          3.3E-11 Ry
     smearing contrib. (-TS)   =       0.00000799 Ry
     internal energy E=F+TS    =   -4240.95440312 Ry

     The total energy is F=E-TS. E is the sum of the following terms:
     one-electron contribution =    -167.02679605 Ry
     hartree contribution      =     116.98941109 Ry
     xc contribution           =    -201.50687702 Ry
     ewald contribution        =    -221.88901604 Ry
     one-center paw contrib.   =   -3767.52112509 Ry

     convergence has been achieved in  18 iterations

     Forces acting on atoms (cartesian axes, Ry/au):

     atom    1 type  1   force =     0.00000000    0.00101663    0.00000000
     atom    2 type  1   force =     0.00000000   -0.00101663    0.00000000
     atom    3 type  2   force =     0.00000000    0.00006144    0.00000000
     atom    4 type  2   force =     0.00000000   -0.00006144    0.00000000
     atom    5 type  2   force =     0.00000000   -0.00022957    0.00004876
     atom    6 type  2   force =     0.00000000    0.00022957   -0.00004876
     atom    7 type  2   force =     0.00000000   -0.00022957   -0.00004876
     atom    8 type  2   force =     0.00000000    0.00022957    0.00004876
     atom    9 type  2   force =     0.00000000   -0.00162336   -0.00175965
     atom   10 type  2   force =     0.00000000    0.00162336    0.00175965
     atom   11 type  2   force =    -0.00000000   -0.00162336    0.00175965
     atom   12 type  2   force =    -0.00000000    0.00162336   -0.00175965

     Total force =     0.005022     Total SCF correction =     0.000008


     Computing stress (Cartesian axis) and pressure

          total   stress  (Ry/bohr**3)                   (kbar)     P=        0.34
   0.00000226   0.00000000   0.00000000            0.33        0.00        0.00
   0.00000000   0.00000174   0.00000000            0.00        0.26        0.00
   0.00000000   0.00000000   0.00000288            0.00        0.00        0.42

 
     init_run     :     23.30s CPU     23.83s WALL (       1 calls)
     electrons    :    991.25s CPU   1002.53s WALL (       1 calls)
     forces       :      6.68s CPU      6.88s WALL (       1 calls)
     stress       :     41.52s CPU     42.15s WALL (       1 calls)

     Called by init_run:
     wfcinit      :     18.42s CPU     18.61s WALL (       1 calls)
     potinit      :      1.52s CPU      1.58s WALL (       1 calls)
     hinit0       :      1.72s CPU      1.76s WALL (       1 calls)

     Called by electrons:
     c_bands      :    823.36s CPU    826.78s WALL (      19 calls)
     sum_band     :    141.37s CPU    145.64s WALL (      19 calls)
     v_of_rho     :      5.82s CPU      6.10s WALL (      19 calls)
     newd         :     15.05s CPU     18.53s WALL (      19 calls)
     PAW_pot      :      6.00s CPU      6.01s WALL (      19 calls)
     mix_rho      :      0.85s CPU      0.88s WALL (      19 calls)

     Called by c_bands:
     init_us_2    :     12.09s CPU     12.15s WALL (    2583 calls)
     cegterg      :    744.50s CPU    747.41s WALL (    1197 calls)

     Called by *egterg:
     cdiaghg      :     27.40s CPU     27.46s WALL (    8095 calls)
     h_psi        :    576.20s CPU    578.99s WALL (    8221 calls)
     s_psi        :     45.35s CPU     45.42s WALL (    8221 calls)
     g_psi        :      2.01s CPU      2.02s WALL (    6961 calls)

     Called by h_psi:
     h_psi:calbec :     39.48s CPU     39.56s WALL (    8221 calls)
     vloc_psi     :    488.41s CPU    490.97s WALL (    8221 calls)
     add_vuspsi   :     45.02s CPU     45.09s WALL (    8221 calls)

     General routines
     calbec       :     52.34s CPU     52.44s WALL (    9733 calls)
     fft          :      3.57s CPU      3.70s WALL (     271 calls)
     ffts         :      0.09s CPU      0.09s WALL (      38 calls)
     fftw         :    449.80s CPU    452.09s WALL (  428034 calls)
     interpolate  :      0.33s CPU      0.33s WALL (      19 calls)
 
     Parallel routines
 
     PWSCF        :  17m43.05s CPU  17m55.75s WALL

 
   This run was terminated on:  15:31:17  19Nov2021            

=------------------------------------------------------------------------------=
   JOB DONE.
=------------------------------------------------------------------------------=
