
     Program PWSCF v.6.8 starts on 19Nov2021 at 15:14:49 

     This program is part of the open-source Quantum ESPRESSO suite
     for quantum simulation of materials; please cite
         "P. Giannozzi et al., J. Phys.:Condens. Matter 21 395502 (2009);
         "P. Giannozzi et al., J. Phys.:Condens. Matter 29 465901 (2017);
         "P. Giannozzi et al., J. Chem. Phys. 152 154105 (2020);
          URL http://www.quantum-espresso.org", 
     in publications or presentations arising from this work. More details at
     http://www.quantum-espresso.org/quote

     Parallel version (MPI), running on    10 processors

     MPI processes distributed on     1 nodes
     R & G space division:  proc/nbgrp/npool/nimage =      10
     70949 MiB available memory on the printing compute node when the environment starts
 
     Waiting for input...
     Reading input from standard input

     Current dimensions of program PWSCF are:
     Max number of different atomic species (ntypx) = 10
     Max number of k-points (npk) =  40000
     Max angular momentum in pseudopotentials (lmaxx) =  4
     file Zr.pbe-spn-kjpaw_psl.1.0.0.UPF: wavefunction(s)  4S 4P renormalized
     file Te.pbe-n-kjpaw_psl.1.0.0.UPF: wavefunction(s)  5S 5P renormalized
     Message from routine setup:
     using ibrav=0 with symmetry is DISCOURAGED, use correct ibrav instead

     Subspace diagonalization in iterative solution of the eigenvalue problem:
     a serial algorithm will be used

 
     Parallelization info
     --------------------
     sticks:   dense  smooth     PW     G-vecs:    dense   smooth      PW
     Min         734     293     87               115340    29174    4753
     Max         735     295     88               115345    29176    4760
     Sum        7345    2937    873              1153415   291749   47557
 
     Using Slab Decomposition
 


     bravais-lattice index     =            0
     lattice parameter (alat)  =      15.5510  a.u.
     unit-cell volume          =    3018.5011 (a.u.)^3
     number of atoms/cell      =           12
     number of atomic types    =            2
     number of electrons       =        84.00
     number of Kohn-Sham states=           50
     kinetic-energy cutoff     =      80.0000  Ry
     charge density cutoff     =     800.0000  Ry
     scf convergence threshold =      1.0E-10
     mixing beta               =       0.7000
     number of iterations used =            8  plain     mixing
     Exchange-correlation= SLA  PW   PBX  PBC
                           (   1   4   3   4   0   0   0)

     celldm(1)=  15.551040  celldm(2)=   0.000000  celldm(3)=   0.000000
     celldm(4)=   0.000000  celldm(5)=   0.000000  celldm(6)=   0.000000

     crystal axes: (cart. coord. in units of alat)
               a(1) = (   0.246007  -0.969268   0.000000 )  
               a(2) = (   0.246007   0.969268   0.000000 )  
               a(3) = (   0.000000   0.000000   1.683031 )  

     reciprocal axes: (cart. coord. in units 2 pi/alat)
               b(1) = (  2.032465 -0.515853  0.000000 )  
               b(2) = (  2.032465  0.515853  0.000000 )  
               b(3) = (  0.000000  0.000000  0.594166 )  


     PseudoPot. # 1 for Zr read from file:
     pseudo/Zr.pbe-spn-kjpaw_psl.1.0.0.UPF
     MD5 check sum: 02112c41713a0468aff2bb39ef194e36
     Pseudo is Projector augmented-wave + core cor, Zval = 12.0
     Generated using &quot;atomic&quot; code by A. Dal Corso  v.6.2.2
     Shape of augmentation charge: PSQ
     Using radial grid of 1225 points,  6 beta functions with: 
                l(1) =   0
                l(2) =   0
                l(3) =   1
                l(4) =   1
                l(5) =   2
                l(6) =   2
     Q(r) pseudized with 0 coefficients 


     PseudoPot. # 2 for Te read from file:
     pseudo/Te.pbe-n-kjpaw_psl.1.0.0.UPF
     MD5 check sum: 66247bff2bd9dbf220fbb0bf5ab56e9d
     Pseudo is Projector augmented-wave + core cor, Zval =  6.0
     Generated using &quot;atomic&quot; code by A. Dal Corso  v.6.3
     Shape of augmentation charge: PSQ
     Using radial grid of 1245 points,  6 beta functions with: 
                l(1) =   0
                l(2) =   0
                l(3) =   1
                l(4) =   1
                l(5) =   2
                l(6) =   2
     Q(r) pseudized with 0 coefficients 


     atomic species   valence    mass     pseudopotential
        Zr            12.00    91.22000     Zr( 1.00)
        Te             6.00   127.60000     Te( 1.00)

      8 Sym. Ops., with inversion, found ( 4 have fractional translation)



   Cartesian axes

     site n.     atom                  positions (alat units)
         1           Zr  tau(   1) = (   0.0000000   0.6045131   0.4207578  )
         2           Zr  tau(   2) = (   0.2460067   0.3647550   1.2622733  )
         3           Te  tau(   3) = (   0.2460067   0.3342264   0.4207578  )
         4           Te  tau(   4) = (   0.0000000   0.6350417   1.2622733  )
         5           Te  tau(   5) = (   0.2460067   0.8103239   0.2524034  )
         6           Te  tau(   6) = (   0.0000000   0.1589442   1.4306277  )
         7           Te  tau(   7) = (   0.2460067   0.8103239   0.5891121  )
         8           Te  tau(   8) = (   0.0000000   0.1589442   1.0939189  )
         9           Te  tau(   9) = (   0.0000000   0.4168090   0.7327115  )
        10           Te  tau(  10) = (   0.2460067   0.5524591   0.9503196  )
        11           Te  tau(  11) = (   0.0000000   0.4168090   0.1088041  )
        12           Te  tau(  12) = (   0.2460067   0.5524591   1.5742270  )

     number of k points=    63  Methfessel-Paxton smearing, width (Ry)=  0.0030
                       cart. coord. in units 2pi/alat
        k(    1) = (   0.0000000   0.0000000   0.0000000), wk =   0.0078125
        k(    2) = (   0.0000000   0.0000000   0.1485415), wk =   0.0156250
        k(    3) = (   0.0000000   0.0000000  -0.2970830), wk =   0.0078125
        k(    4) = (   0.2540581   0.0644816   0.0000000), wk =   0.0312500
        k(    5) = (   0.2540581   0.0644816   0.1485415), wk =   0.0625000
        k(    6) = (   0.2540581   0.0644816  -0.2970830), wk =   0.0312500
        k(    7) = (   0.5081162   0.1289633   0.0000000), wk =   0.0312500
        k(    8) = (   0.5081162   0.1289633   0.1485415), wk =   0.0625000
        k(    9) = (   0.5081162   0.1289633  -0.2970830), wk =   0.0312500
        k(   10) = (   0.7621743   0.1934449   0.0000000), wk =   0.0312500
        k(   11) = (   0.7621743   0.1934449   0.1485415), wk =   0.0625000
        k(   12) = (   0.7621743   0.1934449  -0.2970830), wk =   0.0312500
        k(   13) = (  -1.0162324  -0.2579266   0.0000000), wk =   0.0156250
        k(   14) = (  -1.0162324  -0.2579266   0.1485415), wk =   0.0312500
        k(   15) = (  -1.0162324  -0.2579266  -0.2970830), wk =   0.0156250
        k(   16) = (   0.5081162   0.0000000   0.0000000), wk =   0.0156250
        k(   17) = (   0.5081162   0.0000000   0.1485415), wk =   0.0312500
        k(   18) = (   0.5081162   0.0000000  -0.2970830), wk =   0.0156250
        k(   19) = (   0.7621743   0.0644816   0.0000000), wk =   0.0312500
        k(   20) = (   0.7621743   0.0644816   0.1485415), wk =   0.0625000
        k(   21) = (   0.7621743   0.0644816  -0.2970830), wk =   0.0312500
        k(   22) = (   1.0162324   0.1289633   0.0000000), wk =   0.0312500
        k(   23) = (   1.0162324   0.1289633   0.1485415), wk =   0.0625000
        k(   24) = (   1.0162324   0.1289633  -0.2970830), wk =   0.0312500
        k(   25) = (  -0.7621743  -0.3224082   0.0000000), wk =   0.0312500
        k(   26) = (  -0.7621743  -0.3224082   0.1485415), wk =   0.0625000
        k(   27) = (  -0.7621743  -0.3224082  -0.2970830), wk =   0.0312500
        k(   28) = (  -0.5081162  -0.2579266   0.0000000), wk =   0.0312500
        k(   29) = (  -0.5081162  -0.2579266   0.1485415), wk =   0.0625000
        k(   30) = (  -0.5081162  -0.2579266  -0.2970830), wk =   0.0312500
        k(   31) = (  -0.2540581  -0.1934449   0.0000000), wk =   0.0312500
        k(   32) = (  -0.2540581  -0.1934449   0.1485415), wk =   0.0625000
        k(   33) = (  -0.2540581  -0.1934449  -0.2970830), wk =   0.0312500
        k(   34) = (   0.0000000  -0.1289633   0.0000000), wk =   0.0156250
        k(   35) = (   0.0000000  -0.1289633   0.1485415), wk =   0.0312500
        k(   36) = (   0.0000000  -0.1289633  -0.2970830), wk =   0.0156250
        k(   37) = (   1.0162324   0.0000000   0.0000000), wk =   0.0156250
        k(   38) = (   1.0162324   0.0000000   0.1485415), wk =   0.0312500
        k(   39) = (   1.0162324   0.0000000  -0.2970830), wk =   0.0156250
        k(   40) = (   1.2702905   0.0644816   0.0000000), wk =   0.0312500
        k(   41) = (   1.2702905   0.0644816   0.1485415), wk =   0.0625000
        k(   42) = (   1.2702905   0.0644816  -0.2970830), wk =   0.0312500
        k(   43) = (  -0.5081162  -0.3868899   0.0000000), wk =   0.0312500
        k(   44) = (  -0.5081162  -0.3868899   0.1485415), wk =   0.0625000
        k(   45) = (  -0.5081162  -0.3868899  -0.2970830), wk =   0.0312500
        k(   46) = (  -0.2540581  -0.3224082   0.0000000), wk =   0.0312500
        k(   47) = (  -0.2540581  -0.3224082   0.1485415), wk =   0.0625000
        k(   48) = (  -0.2540581  -0.3224082  -0.2970830), wk =   0.0312500
        k(   49) = (   0.0000000  -0.2579266   0.0000000), wk =   0.0156250
        k(   50) = (   0.0000000  -0.2579266   0.1485415), wk =   0.0312500
        k(   51) = (   0.0000000  -0.2579266  -0.2970830), wk =   0.0156250
        k(   52) = (   1.5243485   0.0000000   0.0000000), wk =   0.0156250
        k(   53) = (   1.5243485   0.0000000   0.1485415), wk =   0.0312500
        k(   54) = (   1.5243485   0.0000000  -0.2970830), wk =   0.0156250
        k(   55) = (  -0.2540581  -0.4513715   0.0000000), wk =   0.0312500
        k(   56) = (  -0.2540581  -0.4513715   0.1485415), wk =   0.0625000
        k(   57) = (  -0.2540581  -0.4513715  -0.2970830), wk =   0.0312500
        k(   58) = (   0.0000000  -0.3868899   0.0000000), wk =   0.0156250
        k(   59) = (   0.0000000  -0.3868899   0.1485415), wk =   0.0312500
        k(   60) = (   0.0000000  -0.3868899  -0.2970830), wk =   0.0156250
        k(   61) = (  -2.0324647   0.0000000   0.0000000), wk =   0.0078125
        k(   62) = (  -2.0324647   0.0000000   0.1485415), wk =   0.0156250
        k(   63) = (  -2.0324647   0.0000000  -0.2970830), wk =   0.0078125

     Dense  grid:  1153415 G-vectors     FFT dimensions: ( 144, 144, 240)

     Smooth grid:   291749 G-vectors     FFT dimensions: (  90,  90, 150)

     Estimated max dynamical RAM per process >     657.19 MB

     Estimated total dynamical RAM >       6.42 GB

     Initial potential from superposition of free atoms

     starting charge   83.99353, renormalised to   84.00000
     Starting wfcs are   66 randomized atomic wfcs
     Checking if some PAW data can be deallocated... 

     total cpu time spent up to now is       18.7 secs

     Self-consistent Calculation

     iteration #  1     ecut=    80.00 Ry     beta= 0.70
     Davidson diagonalization with overlap
     ethr =  1.00E-02,  avg # of iterations =  2.1

     Threshold (ethr) on eigenvalues was too large:
     Diagonalizing with lowered threshold

     Davidson diagonalization with overlap
     ethr =  4.23E-04,  avg # of iterations =  4.0

     total cpu time spent up to now is      100.0 secs

     total energy              =   -4240.73046746 Ry
     estimated scf accuracy    <       0.43639550 Ry

     iteration #  2     ecut=    80.00 Ry     beta= 0.70
     Davidson diagonalization with overlap
     ethr =  5.20E-04,  avg # of iterations =  7.6

     total cpu time spent up to now is      160.1 secs

     total energy              =   -4240.63847232 Ry
     estimated scf accuracy    <       2.02991407 Ry

     iteration #  3     ecut=    80.00 Ry     beta= 0.70
     Davidson diagonalization with overlap
     ethr =  5.20E-04,  avg # of iterations =  5.4

     total cpu time spent up to now is      210.2 secs

     total energy              =   -4240.93896735 Ry
     estimated scf accuracy    <       0.00889286 Ry

     iteration #  4     ecut=    80.00 Ry     beta= 0.70
     Davidson diagonalization with overlap
     c_bands:  1 eigenvalues not converged
     c_bands:  2 eigenvalues not converged
     c_bands:  1 eigenvalues not converged
     c_bands:  1 eigenvalues not converged
     c_bands:  1 eigenvalues not converged
     c_bands:  2 eigenvalues not converged
     c_bands:  1 eigenvalues not converged
     c_bands:  2 eigenvalues not converged
     c_bands:  2 eigenvalues not converged
     c_bands:  2 eigenvalues not converged
     c_bands:  1 eigenvalues not converged
     c_bands:  1 eigenvalues not converged
     c_bands:  1 eigenvalues not converged
     c_bands:  1 eigenvalues not converged
     c_bands:  1 eigenvalues not converged
     c_bands:  1 eigenvalues not converged
     c_bands:  1 eigenvalues not converged
     c_bands:  1 eigenvalues not converged
     c_bands:  1 eigenvalues not converged
     ethr =  1.06E-05,  avg # of iterations = 17.4

     total cpu time spent up to now is      306.0 secs

     total energy              =   -4240.95001920 Ry
     estimated scf accuracy    <       0.04990688 Ry

     iteration #  5     ecut=    80.00 Ry     beta= 0.70
     Davidson diagonalization with overlap
     ethr =  1.06E-05,  avg # of iterations =  7.4

     total cpu time spent up to now is      357.4 secs

     total energy              =   -4240.95195664 Ry
     estimated scf accuracy    <       0.00871257 Ry

     iteration #  6     ecut=    80.00 Ry     beta= 0.70
     Davidson diagonalization with overlap
     ethr =  1.04E-05,  avg # of iterations =  2.8

     total cpu time spent up to now is      397.6 secs

     total energy              =   -4240.95266926 Ry
     estimated scf accuracy    <       0.00109265 Ry

     iteration #  7     ecut=    80.00 Ry     beta= 0.70
     Davidson diagonalization with overlap
     c_bands:  1 eigenvalues not converged
     ethr =  1.30E-06,  avg # of iterations = 11.3

     total cpu time spent up to now is      465.0 secs

     total energy              =   -4240.95322320 Ry
     estimated scf accuracy    <       0.00124307 Ry

     iteration #  8     ecut=    80.00 Ry     beta= 0.70
     Davidson diagonalization with overlap
     ethr =  1.30E-06,  avg # of iterations =  2.2

     total cpu time spent up to now is      501.8 secs

     total energy              =   -4240.95326286 Ry
     estimated scf accuracy    <       0.00017572 Ry

     iteration #  9     ecut=    80.00 Ry     beta= 0.70
     Davidson diagonalization with overlap
     ethr =  2.09E-07,  avg # of iterations =  6.3

     total cpu time spent up to now is      551.8 secs

     total energy              =   -4240.95332189 Ry
     estimated scf accuracy    <       0.00002513 Ry

     iteration # 10     ecut=    80.00 Ry     beta= 0.70
     Davidson diagonalization with overlap
     ethr =  2.99E-08,  avg # of iterations =  2.7

     total cpu time spent up to now is      590.5 secs

     total energy              =   -4240.95332366 Ry
     estimated scf accuracy    <       0.00000430 Ry

     iteration # 11     ecut=    80.00 Ry     beta= 0.70
     Davidson diagonalization with overlap
     ethr =  5.12E-09,  avg # of iterations =  6.2

     total cpu time spent up to now is      641.4 secs

     total energy              =   -4240.95332561 Ry
     estimated scf accuracy    <       0.00000111 Ry

     iteration # 12     ecut=    80.00 Ry     beta= 0.70
     Davidson diagonalization with overlap
     ethr =  1.32E-09,  avg # of iterations =  2.7

     total cpu time spent up to now is      679.7 secs

     total energy              =   -4240.95332569 Ry
     estimated scf accuracy    <       0.00000012 Ry

     iteration # 13     ecut=    80.00 Ry     beta= 0.70
     Davidson diagonalization with overlap
     ethr =  1.43E-10,  avg # of iterations =  7.4

     total cpu time spent up to now is      736.4 secs

     total energy              =   -4240.95332577 Ry
     estimated scf accuracy    <       0.00000007 Ry

     iteration # 14     ecut=    80.00 Ry     beta= 0.70
     Davidson diagonalization with overlap
     ethr =  8.23E-11,  avg # of iterations =  1.6

     total cpu time spent up to now is      771.8 secs

     total energy              =   -4240.95332576 Ry
     estimated scf accuracy    <       0.00000003 Ry

     iteration # 15     ecut=    80.00 Ry     beta= 0.70
     Davidson diagonalization with overlap
     ethr =  3.10E-11,  avg # of iterations =  5.6

     total cpu time spent up to now is      817.7 secs

     total energy              =   -4240.95332577 Ry
     estimated scf accuracy    <          1.4E-09 Ry

     iteration # 16     ecut=    80.00 Ry     beta= 0.70
     Davidson diagonalization with overlap
     ethr =  1.70E-12,  avg # of iterations =  6.0

     total cpu time spent up to now is      866.5 secs

     total energy              =   -4240.95332577 Ry
     estimated scf accuracy    <          9.1E-10 Ry

     iteration # 17     ecut=    80.00 Ry     beta= 0.70
     Davidson diagonalization with overlap
     ethr =  1.09E-12,  avg # of iterations =  3.5

     total cpu time spent up to now is      904.6 secs

     total energy              =   -4240.95332577 Ry
     estimated scf accuracy    <          1.2E-10 Ry

     iteration # 18     ecut=    80.00 Ry     beta= 0.70
     Davidson diagonalization with overlap
     ethr =  1.38E-13,  avg # of iterations =  6.2

     total cpu time spent up to now is      956.3 secs

     End of self-consistent calculation

          k = 0.0000 0.0000 0.0000 ( 36359 PWs)   bands (ev):

   -44.1359 -44.1358 -22.2591 -22.2591 -22.1670 -22.1670 -22.0674 -22.0673
    -7.9337  -7.6144  -7.1288  -6.8870  -6.2575  -5.4137  -4.8811  -4.8275
    -4.7770  -3.8221   0.3146   0.7542   0.7850   1.1299   1.4166   1.5340
     2.1885   2.3123   2.4292   2.7570   2.9327   3.0073   3.2821   3.3745
     3.7322   3.8318   4.0009   4.0752   4.2740   4.3389   4.3796   4.6890
     4.8054   5.4605   5.6386   5.8527   5.8846   5.9267   6.0945   6.8155
     7.0081   7.5143

          k = 0.0000 0.0000 0.1485 ( 36415 PWs)   bands (ev):

   -44.1359 -44.1359 -22.2591 -22.2591 -22.1670 -22.1670 -22.0674 -22.0673
    -7.9012  -7.6866  -7.0633  -6.9053  -6.1844  -5.6481  -4.8242  -4.7851
    -4.6187  -3.9365   0.3844   0.8187   0.9031   0.9912   1.0873   1.8972
     2.0471   2.2133   2.3755   2.8017   2.9176   3.1030   3.4040   3.4065
     3.7245   3.8908   3.9788   4.0801   4.2086   4.3624   4.3955   4.6886
     4.7510   4.9641   5.8228   5.9282   5.9284   6.0642   6.4564   6.6314
     6.8271   7.1752

          k = 0.0000 0.0000-0.2971 ( 36410 PWs)   bands (ev):

   -44.1359 -44.1359 -22.2591 -22.2591 -22.1670 -22.1670 -22.0673 -22.0673
    -7.8101  -7.8101  -6.9647  -6.9647  -5.9675  -5.9675  -4.8045  -4.8045
    -4.2352  -4.2352   0.6048   0.6048   0.9385   0.9385   1.3508   1.3508
     2.2827   2.2827   2.6210   2.6210   2.8718   2.8718   3.5271   3.5271
     3.9047   3.9047   4.0444   4.0444   4.3425   4.3425   4.3957   4.3957
     4.6991   4.6991   5.9182   5.9182   6.2246   6.2246   6.4457   6.4457
     6.9373   6.9373

          k = 0.2541 0.0645 0.0000 ( 36396 PWs)   bands (ev):

   -44.1355 -44.1355 -22.2572 -22.2571 -22.1767 -22.1767 -22.0663 -22.0661
    -7.8139  -7.4990  -7.0598  -6.8389  -6.1962  -5.3675  -4.9054  -4.7839
    -4.7326  -3.9810   0.3997   0.8771   0.9127   1.1967   1.2453   1.4364
     1.7169   1.8318   1.9082   2.5736   2.5989   3.1937   3.2824   3.7242
     3.7544   3.7636   3.8329   3.8402   4.0379   4.2487   4.3054   4.3304
     4.4904   4.5666   5.8457   5.9782   6.2036   6.5715   6.6027   6.7072
     7.0192   7.1891

          k = 0.2541 0.0645 0.1485 ( 36423 PWs)   bands (ev):

   -44.1355 -44.1355 -22.2572 -22.2571 -22.1767 -22.1767 -22.0662 -22.0662
    -7.7820  -7.5707  -6.9987  -6.8555  -6.1218  -5.5949  -4.7959  -4.7426
    -4.6475  -4.0719   0.4578   0.9189   0.9348   0.9605   1.1949   1.3812
     1.7560   1.9844   2.1990   2.5622   2.5830   2.9536   3.3605   3.3708
     3.5492   3.7922   3.9402   3.9698   4.0374   4.1681   4.3491   4.3598
     4.6857   4.8179   5.8538   5.9524   6.1585   6.2570   6.3934   6.7552
     7.2182   7.2872

          k = 0.2541 0.0645-0.2971 ( 36436 PWs)   bands (ev):

   -44.1355 -44.1355 -22.2571 -22.2571 -22.1767 -22.1767 -22.0662 -22.0662
    -7.6924  -7.6924  -6.9090  -6.9090  -5.9057  -5.9057  -4.7668  -4.7668
    -4.3185  -4.3185   0.6374   0.6374   1.0328   1.0328   1.1467   1.1467
     2.0315   2.0315   2.4793   2.4793   2.6651   2.6651   3.2113   3.2113
     3.6430   3.6430   3.9578   3.9578   4.1241   4.1241   4.3687   4.3687
     5.0024   5.0024   5.7865   5.7865   6.1463   6.1463   6.4483   6.4483
     7.3956   7.3956

          k = 0.5081 0.1290 0.0000 ( 36499 PWs)   bands (ev):

   -44.1346 -44.1346 -22.2524 -22.2524 -22.2000 -22.2000 -22.0635 -22.0634
    -7.4685  -7.1623  -6.8961  -6.7150  -6.0115  -5.2599  -5.0430  -4.6712
    -4.6233  -4.4530   0.3214   0.5863   0.6432   1.1888   1.2205   1.3514
     1.6404   1.7000   1.9233   2.1004   2.1604   2.2831   2.4616   3.3927
     3.4867   3.5094   3.5675   3.5865   3.7725   3.8641   3.9444   4.1876
     4.3843   5.0095   5.6430   6.0808   6.1498   6.5948   6.6161   6.9741
     7.4510   7.5627

          k = 0.5081 0.1290 0.1485 ( 36476 PWs)   bands (ev):

   -44.1346 -44.1346 -22.2524 -22.2524 -22.2000 -22.2000 -22.0635 -22.0634
    -7.4385  -7.2366  -6.8412  -6.7282  -5.9378  -5.4669  -4.8813  -4.6539
    -4.6382  -4.4789   0.3455   0.5974   0.7564   0.9768   1.2457   1.3323
     1.4187   1.5647   2.0145   2.0954   2.3541   2.4511   2.8155   3.4073
     3.4261   3.4824   3.5196   3.6078   3.7250   3.7562   3.8522   4.2369
     4.3077   4.4935   6.1660   6.2020   6.3522   6.5958   6.6614   6.8397
     7.2923   7.5152

          k = 0.5081 0.1290-0.2971 ( 36466 PWs)   bands (ev):

   -44.1346 -44.1346 -22.2524 -22.2524 -22.2000 -22.2000 -22.0635 -22.0635
    -7.3539  -7.3539  -6.7698  -6.7698  -5.7373  -5.7373  -4.7331  -4.7331
    -4.5554  -4.5554   0.4657   0.4657   1.0104   1.0104   1.0640   1.0640
     1.4304   1.4304   2.0569   2.0569   2.6942   2.6942   3.1695   3.1695
     3.4008   3.4008   3.5597   3.5597   3.7224   3.7224   3.8488   3.8488
     4.3171   4.3171   6.4074   6.4074   6.5632   6.5632   6.8484   6.8484
     7.1629   7.1629

          k = 0.7622 0.1934 0.0000 ( 36521 PWs)   bands (ev):

   -44.1337 -44.1337 -22.2477 -22.2477 -22.2232 -22.2232 -22.0607 -22.0607
    -6.9781  -6.7449  -6.6387  -6.5285  -5.7573  -5.4170  -5.1962  -5.1210
    -4.5463  -4.5096  -0.0256   0.0170   0.4424   0.9846   1.0038   1.2772
     1.4837   1.6027   1.9821   2.1166   2.2395   2.3225   2.4246   2.7956
     2.9156   3.2644   3.3457   3.4680   3.5614   3.6702   3.7198   3.8110
     3.8136   4.5674   5.9652   6.3613   6.4210   6.8676   6.8848   6.9635
     7.3304   7.6283

          k = 0.7622 0.1934 0.1485 ( 36503 PWs)   bands (ev):

   -44.1337 -44.1337 -22.2477 -22.2477 -22.2232 -22.2232 -22.0607 -22.0607
    -6.9545  -6.8018  -6.6041  -6.5375  -5.7060  -5.4662  -5.1863  -5.1326
    -4.5380  -4.5126  -0.0223   0.1833   0.3234   0.8762   0.9874   1.2348
     1.4957   1.6178   1.9386   2.0531   2.1259   2.6133   2.6903   2.8665
     2.8978   3.0724   3.2712   3.3862   3.5242   3.6208   3.6726   3.9328
     3.9760   4.5037   5.7576   6.3711   6.6756   6.7862   6.9571   6.9954
     7.1086   7.6076

          k = 0.7622 0.1934-0.2971 ( 36522 PWs)   bands (ev):

   -44.1337 -44.1337 -22.2477 -22.2477 -22.2232 -22.2232 -22.0607 -22.0607
    -6.8893  -6.8893  -6.5633  -6.5633  -5.5853  -5.5853  -5.1600  -5.1600
    -4.5227  -4.5227   0.1101   0.1101   0.5205   0.5205   1.0827   1.0827
     1.5640   1.5640   2.0130   2.0130   2.3906   2.3906   2.8257   2.8257
     2.9837   2.9837   3.3078   3.3078   3.5971   3.5971   3.9073   3.9073
     4.0768   4.0768   6.2017   6.2017   6.4690   6.4690   7.0048   7.0048
     7.4650   7.4650

          k =-1.0162-0.2579 0.0000 ( 36506 PWs)   bands (ev):

   -44.1333 -44.1333 -22.2456 -22.2456 -22.2329 -22.2329 -22.0596 -22.0596
    -6.7239  -6.7036  -6.0551  -6.0440  -6.0103  -6.0038  -5.2948  -5.2942
    -4.4890  -4.4624  -0.0486  -0.0270   0.2681   0.2897   1.0115   1.0204
     1.4677   1.6671   2.2299   2.3914   2.4039   2.4213   2.8074   2.8158
     2.8170   2.8277   3.2028   3.2568   3.3193   3.3970   3.4747   3.6841
     3.8276   4.1152   6.5969   6.6096   6.6315   6.6728   7.0520   7.1490
     7.1538   7.1905

          k =-1.0162-0.2579 0.1485 ( 36506 PWs)   bands (ev):

   -44.1333 -44.1333 -22.2456 -22.2456 -22.2329 -22.2329 -22.0596 -22.0596
    -6.7199  -6.7055  -6.0786  -6.0708  -5.9854  -5.9807  -5.2922  -5.2918
    -4.4881  -4.4693  -0.1457  -0.1391   0.4814   0.4888   1.0079   1.0228
     1.4629   1.5945   2.0127   2.1202   2.3684   2.3978   2.6879   2.6925
     2.9368   3.0431   3.0895   3.1942   3.5549   3.5699   3.6283   3.7487
     4.0326   4.1648   6.0829   6.1010   6.5118   6.5881   7.1427   7.1608
     7.3558   7.4129

          k =-1.0162-0.2579-0.2971 ( 36528 PWs)   bands (ev):

   -44.1333 -44.1333 -22.2456 -22.2456 -22.2329 -22.2329 -22.0596 -22.0596
    -6.7116  -6.7116  -6.0906  -6.0906  -5.9682  -5.9682  -5.2895  -5.2895
    -4.4818  -4.4818  -0.2056  -0.2056   0.7130   0.7130   0.9595   0.9595
     1.5199   1.5199   1.8083   1.8083   2.3689   2.3689   2.7665   2.7665
     2.8827   2.8827   3.1689   3.1689   3.6359   3.6359   3.8046   3.8046
     4.3442   4.3442   5.6632   5.6632   6.4620   6.4620   7.1716   7.1716
     7.4705   7.4705

          k = 0.5081 0.0000 0.0000 ( 36503 PWs)   bands (ev):

   -44.1346 -44.1346 -22.2524 -22.2524 -22.2000 -22.2000 -22.0635 -22.0634
    -7.4720  -7.1629  -6.8969  -6.7117  -6.0081  -5.2598  -5.0402  -4.6654
    -4.6304  -4.4526   0.3267   0.5883   0.6351   1.1843   1.2266   1.3088
     1.6370   1.6958   1.9095   2.1060   2.1652   2.2605   2.4618   3.3842
     3.5078   3.5327   3.5697   3.5805   3.7804   3.9193   3.9282   4.2250
     4.3864   5.0043   5.6489   6.0577   6.1855   6.5568   6.5644   7.0102
     7.4632   7.5798

          k = 0.5081 0.0000 0.1485 ( 36453 PWs)   bands (ev):

   -44.1346 -44.1346 -22.2524 -22.2524 -22.2000 -22.2000 -22.0635 -22.0634
    -7.4418  -7.2383  -6.8403  -6.7250  -5.9353  -5.4665  -4.8771  -4.6553
    -4.6377  -4.4802   0.3482   0.5916   0.7572   0.9808   1.2540   1.3125
     1.3890   1.5430   2.0123   2.1061   2.3845   2.3975   2.8127   3.4066
     3.4713   3.4822   3.4941   3.6171   3.7157   3.8269   3.8372   4.2796
     4.3172   4.4840   6.1577   6.2119   6.3712   6.5486   6.6242   6.8721
     7.3113   7.5255

          k = 0.5081 0.0000-0.2971 ( 36452 PWs)   bands (ev):

   -44.1346 -44.1346 -22.2524 -22.2524 -22.2000 -22.2000 -22.0635 -22.0635
    -7.3567  -7.3567  -6.7671  -6.7671  -5.7363  -5.7363  -4.7292  -4.7292
    -4.5582  -4.5582   0.4637   0.4637   1.0117   1.0117   1.0709   1.0709
     1.3935   1.3935   2.0597   2.0597   2.6849   2.6849   3.1629   3.1629
     3.4058   3.4058   3.5714   3.5714   3.7513   3.7513   3.8457   3.8457
     4.3369   4.3369   6.4229   6.4229   6.5271   6.5271   6.8662   6.8662
     7.1638   7.1638

          k = 0.7622 0.0645 0.0000 ( 36505 PWs)   bands (ev):

   -44.1337 -44.1337 -22.2477 -22.2477 -22.2232 -22.2232 -22.0607 -22.0607
    -6.9860  -6.7425  -6.6400  -6.5216  -5.7574  -5.4141  -5.1967  -5.1202
    -4.5364  -4.5204  -0.0158   0.0134   0.4558   0.9926   1.0162   1.2910
     1.4480   1.5653   1.9497   2.1368   2.2621   2.3028   2.3609   2.7708
     2.9045   3.3120   3.3637   3.5136   3.5677   3.6402   3.6992   3.8280
     3.8293   4.5982   5.9626   6.3454   6.4257   6.8570   6.9226   6.9248
     7.3445   7.6490

          k = 0.7622 0.0645 0.1485 ( 36509 PWs)   bands (ev):

   -44.1337 -44.1337 -22.2477 -22.2477 -22.2232 -22.2232 -22.0607 -22.0607
    -6.9619  -6.8041  -6.6006  -6.5305  -5.7064  -5.4651  -5.1856  -5.1316
    -4.5311  -4.5202  -0.0151   0.1815   0.3323   0.8684   1.0126   1.2496
     1.4639   1.6166   1.9681   1.9909   2.0529   2.6238   2.6822   2.8588
     2.8766   3.0763   3.3217   3.3921   3.5573   3.6085   3.6550   3.9642
     3.9896   4.4995   5.7825   6.3494   6.6887   6.7873   6.9548   7.0105
     7.0819   7.6275

          k = 0.7622 0.0645-0.2971 ( 36472 PWs)   bands (ev):

   -44.1337 -44.1337 -22.2477 -22.2477 -22.2232 -22.2232 -22.0607 -22.0607
    -6.8951  -6.8951  -6.5569  -6.5569  -5.5857  -5.5857  -5.1588  -5.1588
    -4.5230  -4.5230   0.1181   0.1181   0.5134   0.5134   1.1046   1.1046
     1.5579   1.5579   1.9614   1.9614   2.3728   2.3728   2.8285   2.8285
     2.9676   2.9676   3.3645   3.3645   3.5943   3.5943   3.8953   3.8953
     4.0913   4.0913   6.2277   6.2277   6.4691   6.4691   6.9732   6.9732
     7.4926   7.4926

          k = 1.0162 0.1290 0.0000 ( 36514 PWs)   bands (ev):

   -44.1333 -44.1333 -22.2456 -22.2456 -22.2329 -22.2329 -22.0596 -22.0596
    -6.7239  -6.7036  -6.0549  -6.0442  -6.0103  -6.0038  -5.2948  -5.2942
    -4.4890  -4.4624  -0.0544  -0.0211   0.2644   0.2935   1.0045   1.0283
     1.4739   1.6576   2.2280   2.3939   2.4008   2.4192   2.7966   2.8036
     2.8147   2.8700   3.2215   3.2377   3.2980   3.3845   3.5208   3.6637
     3.8125   4.1297   6.5916   6.5973   6.6443   6.6801   7.0726   7.1498
     7.1559   7.1752

          k = 1.0162 0.1290 0.1485 ( 36524 PWs)   bands (ev):

   -44.1333 -44.1333 -22.2456 -22.2456 -22.2329 -22.2329 -22.0596 -22.0596
    -6.7199  -6.7055  -6.0785  -6.0709  -5.9853  -5.9807  -5.2922  -5.2918
    -4.4881  -4.4693  -0.1480  -0.1371   0.4828   0.4880   1.0090   1.0219
     1.4685   1.5888   2.0244   2.1032   2.3693   2.3936   2.6508   2.7361
     2.9457   3.0554   3.0823   3.1843   3.5252   3.5997   3.6360   3.7411
     4.0112   4.1842   6.0763   6.1116   6.5085   6.5907   7.1472   7.1602
     7.3645   7.4052

          k = 1.0162 0.1290-0.2971 ( 36516 PWs)   bands (ev):

   -44.1333 -44.1333 -22.2456 -22.2456 -22.2329 -22.2329 -22.0596 -22.0596
    -6.7116  -6.7116  -6.0906  -6.0906  -5.9682  -5.9682  -5.2895  -5.2895
    -4.4818  -4.4818  -0.2057  -0.2057   0.7134   0.7134   0.9594   0.9594
     1.5209   1.5209   1.8091   1.8091   2.3606   2.3606   2.7499   2.7499
     2.9219   2.9219   3.1517   3.1517   3.6386   3.6386   3.8022   3.8022
     4.3447   4.3447   5.6657   5.6657   6.4613   6.4613   7.1729   7.1729
     7.4714   7.4714

          k =-0.7622-0.3224 0.0000 ( 36511 PWs)   bands (ev):

   -44.1337 -44.1337 -22.2477 -22.2477 -22.2232 -22.2232 -22.0607 -22.0607
    -6.9661  -6.7493  -6.6369  -6.5381  -5.7573  -5.4211  -5.1953  -5.1222
    -4.5540  -4.5007  -0.0391   0.0222   0.4237   0.9515   1.0195   1.2601
     1.5039   1.6666   2.0482   2.0922   2.2468   2.3478   2.4522   2.8319
     2.9276   3.2125   3.3310   3.4615   3.5458   3.6370   3.6699   3.7742
     3.9009   4.5149   5.9689   6.3591   6.4509   6.7854   6.9276   7.0297
     7.3001   7.6004

          k =-0.7622-0.3224 0.1485 ( 36492 PWs)   bands (ev):

   -44.1337 -44.1337 -22.2477 -22.2477 -22.2232 -22.2232 -22.0607 -22.0607
    -6.9433  -6.7989  -6.6093  -6.5474  -5.7055  -5.4678  -5.1872  -5.1339
    -4.5433  -4.5063  -0.0325   0.1868   0.3102   0.8828   0.9647   1.2149
     1.5290   1.6245   1.9221   2.1525   2.2026   2.6031   2.6827   2.8846
     2.9138   3.0898   3.2146   3.3679   3.4747   3.5987   3.7195   3.8799
     3.9692   4.5079   5.7245   6.4061   6.6472   6.7828   6.9243   7.0415
     7.1366   7.5669

          k =-0.7622-0.3224-0.2971 ( 36508 PWs)   bands (ev):

   -44.1337 -44.1337 -22.2477 -22.2477 -22.2232 -22.2232 -22.0607 -22.0607
    -6.8807  -6.8807  -6.5729  -6.5729  -5.5846  -5.5846  -5.1618  -5.1618
    -4.5224  -4.5224   0.0990   0.0990   0.5301   0.5301   1.0569   1.0569
     1.5724   1.5724   2.0723   2.0723   2.4333   2.4333   2.8226   2.8226
     3.0076   3.0076   3.2273   3.2273   3.5950   3.5950   3.9020   3.9020
     4.0753   4.0753   6.1682   6.1682   6.4673   6.4673   7.0565   7.0565
     7.4173   7.4173

          k =-0.5081-0.2579 0.0000 ( 36480 PWs)   bands (ev):

   -44.1346 -44.1346 -22.2524 -22.2524 -22.2000 -22.2000 -22.0635 -22.0634
    -7.4600  -7.1608  -6.8948  -6.7225  -6.0198  -5.2600  -5.0496  -4.6800
    -4.6117  -4.4542   0.3089   0.5881   0.6518   1.1995   1.2301   1.4413
     1.6456   1.7195   1.9580   2.0873   2.1531   2.3246   2.4589   3.3945
     3.4126   3.4884   3.5548   3.6091   3.7473   3.7575   3.9689   4.1080
     4.3752   5.0201   5.6312   6.0569   6.1459   6.6923   6.7382   6.8886
     7.4103   7.5245

          k =-0.5081-0.2579 0.1485 ( 36485 PWs)   bands (ev):

   -44.1346 -44.1346 -22.2524 -22.2524 -22.2000 -22.2000 -22.0635 -22.0634
    -7.4304  -7.2323  -6.8440  -6.7357  -5.9440  -5.4676  -4.8912  -4.6506
    -4.6394  -4.4761   0.3390   0.6107   0.7531   0.9675   1.2461   1.3546
     1.5028   1.6263   2.0107   2.0768   2.3413   2.5130   2.8216   3.3290
     3.4307   3.4751   3.5427   3.5933   3.6184   3.7479   3.8612   4.1542
     4.2709   4.5109   6.1562   6.2031   6.3122   6.6969   6.7612   6.7724
     7.2394   7.4939

          k =-0.5081-0.2579-0.2971 ( 36478 PWs)   bands (ev):

   -44.1346 -44.1346 -22.2524 -22.2524 -22.2000 -22.2000 -22.0635 -22.0635
    -7.3470  -7.3470  -6.7765  -6.7765  -5.7399  -5.7399  -4.7420  -4.7420
    -4.5491  -4.5491   0.4701   0.4701   1.0059   1.0059   1.0524   1.0524
     1.5241   1.5241   2.0456   2.0456   2.7215   2.7215   3.1721   3.1721
     3.3834   3.3834   3.5098   3.5098   3.6902   3.6902   3.8531   3.8531
     4.2703   4.2703   6.3717   6.3717   6.6403   6.6403   6.8094   6.8094
     7.1682   7.1682

          k =-0.2541-0.1934 0.0000 ( 36410 PWs)   bands (ev):

   -44.1355 -44.1355 -22.2572 -22.2571 -22.1767 -22.1767 -22.0663 -22.0661
    -7.8080  -7.4979  -7.0546  -6.8440  -6.2088  -5.3697  -4.9144  -4.7910
    -4.7204  -3.9819   0.4247   0.8837   0.9813   1.1923   1.2739   1.4714
     1.7416   1.8555   1.9102   2.5414   2.5892   3.2555   3.2583   3.6701
     3.7051   3.7279   3.7989   3.8634   3.8980   4.1942   4.2855   4.3064
     4.3764   4.6020   5.9016   6.0102   6.2726   6.5739   6.6361   6.7341
     6.9983   7.1084

          k =-0.2541-0.1934 0.1485 ( 36427 PWs)   bands (ev):

   -44.1355 -44.1355 -22.2572 -22.2571 -22.1767 -22.1767 -22.0662 -22.0662
    -7.7764  -7.5679  -6.9970  -6.8603  -6.1319  -5.5977  -4.8137  -4.7356
    -4.6415  -4.0719   0.4813   0.9189   0.9501   1.0400   1.2287   1.3962
     1.7637   1.9877   2.2288   2.5391   2.5717   2.9400   3.3814   3.4125
     3.5595   3.6925   3.8062   3.9015   3.9904   4.1428   4.3045   4.3126
     4.6754   4.8209   5.8456   5.9762   6.1555   6.3279   6.4606   6.7559
     7.1784   7.2766

          k =-0.2541-0.1934-0.2971 ( 36422 PWs)   bands (ev):

   -44.1355 -44.1355 -22.2571 -22.2571 -22.1767 -22.1767 -22.0662 -22.0662
    -7.6877  -7.6877  -6.9119  -6.9119  -5.9114  -5.9114  -4.7713  -4.7713
    -4.3165  -4.3165   0.6565   0.6565   1.0840   1.0840   1.1619   1.1619
     2.0348   2.0348   2.4750   2.4750   2.6651   2.6651   3.2265   3.2265
     3.6324   3.6324   3.8269   3.8269   4.1022   4.1022   4.3157   4.3157
     5.0146   5.0146   5.7516   5.7516   6.1669   6.1669   6.5140   6.5140
     7.3802   7.3802

          k = 0.0000-0.1290 0.0000 ( 36417 PWs)   bands (ev):

   -44.1359 -44.1359 -22.2591 -22.2591 -22.1670 -22.1670 -22.0674 -22.0673
    -7.9306  -7.6139  -7.1252  -6.8897  -6.2655  -5.4155  -4.8875  -4.8325
    -4.7678  -3.8227   0.3327   0.7583   0.8260   1.1398   1.4279   1.5630
     2.1889   2.3117   2.4284   2.7640   2.9343   3.0113   3.3203   3.3674
     3.6860   3.8207   3.8782   4.0127   4.2741   4.2847   4.3318   4.6883
     4.7938   5.4297   5.6606   5.8742   5.8923   5.9762   6.1426   6.8172
     7.0082   7.2325

          k = 0.0000-0.1290 0.1485 ( 36419 PWs)   bands (ev):

   -44.1359 -44.1359 -22.2591 -22.2591 -22.1670 -22.1670 -22.0674 -22.0673
    -7.8983  -7.6851  -7.0616  -6.9077  -6.1911  -5.6502  -4.8343  -4.7802
    -4.6163  -3.9366   0.4020   0.8607   0.9117   0.9963   1.1076   1.9023
     2.0646   2.2138   2.3754   2.8074   2.9198   3.1097   3.3757   3.4401
     3.7159   3.8644   3.8805   3.9947   4.2056   4.3090   4.3501   4.6877
     4.7439   4.9562   5.8355   5.9473   5.9753   6.0697   6.4746   6.6314
     6.8280   7.1534

          k = 0.0000-0.1290-0.2971 ( 36464 PWs)   bands (ev):

   -44.1359 -44.1359 -22.2591 -22.2591 -22.1670 -22.1670 -22.0673 -22.0673
    -7.8076  -7.8076  -6.9657  -6.9657  -5.9715  -5.9715  -4.8067  -4.8067
    -4.2344  -4.2344   0.6246   0.6246   0.9627   0.9627   1.3572   1.3572
     2.2831   2.2831   2.6324   2.6324   2.8755   2.8755   3.5202   3.5202
     3.8451   3.8451   4.0367   4.0367   4.2503   4.2503   4.4046   4.4046
     4.6968   4.6968   5.9377   5.9377   6.2391   6.2391   6.4485   6.4485
     6.9332   6.9332

          k = 1.0162 0.0000 0.0000 ( 36499 PWs)   bands (ev):

   -44.1333 -44.1333 -22.2456 -22.2456 -22.2329 -22.2329 -22.0596 -22.0596
    -6.7239  -6.7036  -6.0547  -6.0444  -6.0103  -6.0038  -5.2948  -5.2942
    -4.4890  -4.4624  -0.0587  -0.0168   0.2615   0.2965   1.0008   1.0331
     1.4810   1.6473   2.2260   2.3969   2.3983   2.4165   2.7916   2.8011
     2.8124   2.8963   3.2370   3.2449   3.2633   3.3669   3.5877   3.6177
     3.7991   4.1429   6.5870   6.5896   6.6523   6.6868   7.1054   7.1478
     7.1507   7.1579

          k = 1.0162 0.0000 0.1485 ( 36485 PWs)   bands (ev):

   -44.1333 -44.1333 -22.2456 -22.2456 -22.2329 -22.2329 -22.0596 -22.0596
    -6.7199  -6.7055  -6.0784  -6.0710  -5.9853  -5.9808  -5.2923  -5.2918
    -4.4881  -4.4693  -0.1496  -0.1358   0.4855   0.4859   1.0105   1.0207
     1.4748   1.5824   2.0452   2.0773   2.3745   2.3850   2.6380   2.7533
     2.9608   3.0702   3.0704   3.1726   3.5119   3.6043   3.6562   3.7298
     3.9936   4.1998   6.0726   6.1192   6.5055   6.5931   7.1537   7.1576
     7.3829   7.3878

          k = 1.0162 0.0000-0.2971 ( 36514 PWs)   bands (ev):

   -44.1333 -44.1333 -22.2456 -22.2456 -22.2329 -22.2329 -22.0596 -22.0596
    -6.7116  -6.7116  -6.0906  -6.0906  -5.9682  -5.9682  -5.2895  -5.2895
    -4.4818  -4.4818  -0.2058  -0.2058   0.7139   0.7139   0.9592   0.9592
     1.5220   1.5220   1.8100   1.8100   2.3525   2.3525   2.7386   2.7386
     2.9604   2.9604   3.1296   3.1296   3.6414   3.6414   3.7997   3.7997
     4.3451   4.3451   5.6681   5.6681   6.4607   6.4607   7.1742   7.1742
     7.4724   7.4724

          k = 1.2703 0.0645 0.0000 ( 36468 PWs)   bands (ev):

   -44.1337 -44.1337 -22.2477 -22.2477 -22.2232 -22.2232 -22.0607 -22.0607
    -6.9569  -6.7532  -6.6356  -6.5448  -5.7574  -5.4239  -5.1947  -5.1231
    -4.5580  -4.4958  -0.0484   0.0260   0.4105   0.9333   1.0305   1.2490
     1.5075   1.7134   2.0768   2.1161   2.2662   2.3651   2.4310   2.8599
     2.9317   3.1718   3.3610   3.4989   3.5061   3.5826   3.6350   3.7251
     3.9876   4.4666   5.9716   6.3542   6.4846   6.7259   6.9607   7.0902
     7.2640   7.5943

          k = 1.2703 0.0645 0.1485 ( 36490 PWs)   bands (ev):

   -44.1337 -44.1337 -22.2477 -22.2477 -22.2232 -22.2232 -22.0607 -22.0607
    -6.9347  -6.7972  -6.6131  -6.5546  -5.7051  -5.4690  -5.1878  -5.1349
    -4.5461  -4.5029  -0.0398   0.1902   0.3001   0.8823   0.9577   1.2020
     1.5447   1.6338   1.9168   2.2239   2.2617   2.5959   2.6611   2.8944
     2.9264   3.1185   3.1784   3.3428   3.4642   3.5510   3.7617   3.8282
     3.9755   4.5094   5.7027   6.4358   6.6177   6.7798   6.9063   7.0934
     7.1476   7.5284

          k = 1.2703 0.0645-0.2971 ( 36480 PWs)   bands (ev):

   -44.1337 -44.1337 -22.2477 -22.2477 -22.2232 -22.2232 -22.0607 -22.0607
    -6.8742  -6.8742  -6.5800  -6.5800  -5.5842  -5.5842  -5.1631  -5.1631
    -4.5222  -4.5222   0.0914   0.0914   0.5365   0.5365   1.0416   1.0416
     1.5785   1.5785   2.1026   2.1026   2.4810   2.4810   2.8225   2.8225
     3.0251   3.0251   3.1646   3.1646   3.5904   3.5904   3.8829   3.8829
     4.0879   4.0879   6.1464   6.1464   6.4654   6.4654   7.1003   7.1003
     7.3747   7.3747

          k =-0.5081-0.3869 0.0000 ( 36463 PWs)   bands (ev):

   -44.1346 -44.1346 -22.2524 -22.2524 -22.2000 -22.2000 -22.0635 -22.0634
    -7.4512  -7.1594  -6.8944  -6.7291  -6.0284  -5.2600  -5.0564  -4.6854
    -4.6032  -4.4553   0.2969   0.5983   0.6465   1.2098   1.2541   1.5438
     1.6520   1.7302   1.9952   2.0686   2.1797   2.3300   2.4523   3.2822
     3.4374   3.4841   3.5085   3.6611   3.6833   3.7308   3.8923   4.1053
     4.3628   5.0276   5.6216   5.9669   6.2127   6.8012   6.8033   6.8646
     7.3407   7.5044

          k =-0.5081-0.3869 0.1485 ( 36477 PWs)   bands (ev):

   -44.1346 -44.1346 -22.2524 -22.2524 -22.2000 -22.2000 -22.0635 -22.0634
    -7.4219  -7.2279  -6.8476  -6.7428  -5.9502  -5.4682  -4.9007  -4.6476
    -4.6405  -4.4732   0.3327   0.6236   0.7472   0.9587   1.2560   1.3691
     1.6064   1.6984   1.9941   2.0584   2.3513   2.5418   2.8283   3.2299
     3.4364   3.4654   3.5047   3.5608   3.6225   3.7360   3.8469   4.1149
     4.2158   4.5252   6.1072   6.2312   6.2873   6.6852   6.8025   6.8952
     7.1682   7.4875

          k =-0.5081-0.3869-0.2971 ( 36492 PWs)   bands (ev):

   -44.1346 -44.1346 -22.2524 -22.2524 -22.2000 -22.2000 -22.0635 -22.0635
    -7.3398  -7.3398  -6.7834  -6.7834  -5.7424  -5.7424  -4.7504  -4.7504
    -4.5433  -4.5433   0.4742   0.4742   1.0003   1.0003   1.0452   1.0452
     1.6341   1.6341   2.0214   2.0214   2.7594   2.7594   3.1306   3.1306
     3.3663   3.3663   3.4690   3.4690   3.6823   3.6823   3.8524   3.8524
     4.2273   4.2273   6.3379   6.3379   6.6817   6.6817   6.7951   6.7951
     7.1901   7.1901

          k =-0.2541-0.3224 0.0000 ( 36485 PWs)   bands (ev):

   -44.1355 -44.1355 -22.2572 -22.2571 -22.1767 -22.1767 -22.0663 -22.0661
    -7.7996  -7.4965  -7.0479  -6.8504  -6.2270  -5.3728  -4.9278  -4.7936
    -4.7095  -3.9832   0.4503   0.8947   1.1006   1.1838   1.3225   1.5428
     1.7784   1.8878   1.9153   2.4702   2.5459   3.2342   3.3589   3.5104
     3.6015   3.6706   3.7377   3.8226   3.9400   4.1412   4.1609   4.2708
     4.3197   4.6223   5.9900   6.0407   6.3366   6.5792   6.6840   6.7775
     6.9221   7.0354

          k =-0.2541-0.3224 0.1485 ( 36445 PWs)   bands (ev):

   -44.1355 -44.1355 -22.2572 -22.2571 -22.1767 -22.1767 -22.0662 -22.0662
    -7.7683  -7.5638  -6.9952  -6.8665  -6.1465  -5.6015  -4.8337  -4.7298
    -4.6341  -4.0720   0.5046   0.9269   0.9663   1.1679   1.3009   1.4207
     1.7826   1.9916   2.2745   2.4734   2.5339   2.9329   3.3957   3.4649
     3.5088   3.5452   3.6606   3.8960   3.9183   4.0894   4.2182   4.2745
     4.6953   4.8078   5.8364   6.0095   6.1543   6.3693   6.5576   6.7519
     7.1411   7.2588

          k =-0.2541-0.3224-0.2971 ( 36442 PWs)   bands (ev):

   -44.1355 -44.1355 -22.2571 -22.2571 -22.1767 -22.1767 -22.0662 -22.0662
    -7.6809  -7.6809  -6.9161  -6.9161  -5.9193  -5.9193  -4.7775  -4.7775
    -4.3136  -4.3136   0.6740   0.6740   1.1361   1.1361   1.2323   1.2323
     2.0424   2.0424   2.4509   2.4509   2.6619   2.6619   3.2482   3.2482
     3.4914   3.4914   3.7981   3.7981   4.0500   4.0500   4.2539   4.2539
     5.0321   5.0321   5.7134   5.7134   6.1609   6.1609   6.6049   6.6049
     7.3619   7.3619

          k = 0.0000-0.2579 0.0000 ( 36445 PWs)   bands (ev):

   -44.1359 -44.1359 -22.2591 -22.2591 -22.1670 -22.1670 -22.0674 -22.0673
    -7.9230  -7.6126  -7.1167  -6.8956  -6.2852  -5.4198  -4.9054  -4.8331
    -4.7545  -3.8239   0.3681   0.7688   0.9362   1.1893   1.4540   1.6264
     2.1900   2.3119   2.4266   2.7817   2.9378   3.0301   3.3108   3.4257
     3.4760   3.6483   3.7935   3.9562   4.1560   4.1977   4.2744   4.6869
     4.7662   5.3857   5.7148   5.9108   5.9300   6.0539   6.2294   6.7953
     7.0084   7.1567

          k = 0.0000-0.2579 0.1485 ( 36452 PWs)   bands (ev):

   -44.1359 -44.1359 -22.2591 -22.2591 -22.1670 -22.1670 -22.0674 -22.0673
    -7.8911  -7.6815  -7.0578  -6.9131  -6.2073  -5.6552  -4.8533  -4.7730
    -4.6111  -3.9368   0.4351   0.9252   0.9629   1.0463   1.1589   1.9163
     2.1057   2.2149   2.3752   2.8218   2.9248   3.1115   3.3198   3.4208
     3.6382   3.6625   3.8553   3.9100   4.1842   4.1981   4.2283   4.6858
     4.7269   4.9479   5.8737   5.9973   6.0355   6.0831   6.5069   6.6147
     6.8303   7.1047

          k = 0.0000-0.2579-0.2971 ( 36454 PWs)   bands (ev):

   -44.1359 -44.1359 -22.2591 -22.2591 -22.1670 -22.1670 -22.0673 -22.0673
    -7.8015  -7.8015  -6.9683  -6.9683  -5.9809  -5.9809  -4.8120  -4.8120
    -4.2325  -4.2325   0.6588   0.6588   1.0470   1.0470   1.3739   1.3739
     2.2840   2.2840   2.6586   2.6586   2.8846   2.8846   3.4034   3.4034
     3.7758   3.7758   4.0178   4.0178   4.1195   4.1195   4.3800   4.3800
     4.6916   4.6916   5.9607   5.9607   6.2724   6.2724   6.4554   6.4554
     6.9115   6.9115

          k = 1.5243 0.0000 0.0000 ( 36439 PWs)   bands (ev):

   -44.1346 -44.1346 -22.2524 -22.2524 -22.2000 -22.2000 -22.0635 -22.0634
    -7.4474  -7.1588  -6.8946  -6.7316  -6.0320  -5.2601  -5.0592  -4.6871
    -4.6003  -4.4558   0.2921   0.6079   0.6374   1.2140   1.2664   1.6029
     1.6789   1.6922   2.0116   2.0631   2.2278   2.2945   2.4481   3.2397
     3.4368   3.4514   3.5161   3.6913   3.7011   3.7313   3.7907   4.1255
     4.3570   5.0295   5.6181   5.9289   6.2434   6.7672   6.8527   6.9222
     7.2965   7.5406

          k = 1.5243 0.0000 0.1485 ( 36476 PWs)   bands (ev):

   -44.1346 -44.1346 -22.2524 -22.2524 -22.2000 -22.2000 -22.0635 -22.0634
    -7.4183  -7.2261  -6.8493  -6.7456  -5.9528  -5.4684  -4.9046  -4.6465
    -4.6409  -4.4721   0.3302   0.6291   0.7437   0.9553   1.2615   1.3744
     1.6704   1.7178   1.9939   2.0376   2.3666   2.5387   2.8312   3.1906
     3.3967   3.4696   3.4907   3.5781   3.6484   3.7237   3.8090   4.1488
     4.1603   4.5309   6.0818   6.2452   6.2811   6.6554   6.8430   6.9643
     7.1217   7.5027

          k = 1.5243 0.0000-0.2971 ( 36508 PWs)   bands (ev):

   -44.1346 -44.1346 -22.2524 -22.2524 -22.2000 -22.2000 -22.0635 -22.0635
    -7.3368  -7.3368  -6.7863  -6.7863  -5.7434  -5.7434  -4.7538  -4.7538
    -4.5410  -4.5410   0.4758   0.4758   0.9978   0.9978   1.0429   1.0429
     1.6903   1.6903   2.0025   2.0025   2.7813   2.7813   3.0911   3.0911
     3.3668   3.3668   3.4592   3.4592   3.6800   3.6800   3.8495   3.8495
     4.2116   4.2116   6.3243   6.3243   6.6797   6.6797   6.8038   6.8038
     7.2068   7.2068

          k =-0.2541-0.4514 0.0000 ( 36444 PWs)   bands (ev):

   -44.1355 -44.1355 -22.2572 -22.2571 -22.1767 -22.1767 -22.0663 -22.0661
    -7.7935  -7.4955  -7.0439  -6.8540  -6.2403  -5.3749  -4.9375  -4.7930
    -4.7042  -3.9842   0.4614   0.9039   1.1760   1.2217   1.3377   1.6273
     1.8056   1.9044   1.9338   2.3923   2.4728   3.2298   3.3662   3.4403
     3.4866   3.7167   3.7468   3.8167   3.8696   4.1030   4.1115   4.2041
     4.3145   4.6353   6.0560   6.0639   6.3647   6.5836   6.7181   6.8090
     6.8326   7.0103

          k =-0.2541-0.4514 0.1485 ( 36461 PWs)   bands (ev):

   -44.1355 -44.1355 -22.2572 -22.2571 -22.1767 -22.1767 -22.0662 -22.0662
    -7.7625  -7.5609  -6.9945  -6.8703  -6.1570  -5.6041  -4.8461  -4.7270
    -4.6296  -4.0720   0.5144   0.9382   0.9697   1.2926   1.3472   1.4535
     1.8091   1.9936   2.3214   2.3993   2.4560   2.9415   3.3308   3.3690
     3.4768   3.5535   3.7302   3.8521   3.8905   3.9640   4.2055   4.2447
     4.7287   4.7830   5.8314   6.0328   6.1618   6.3633   6.6246   6.7407
     7.1304   7.2444

          k =-0.2541-0.4514-0.2971 ( 36490 PWs)   bands (ev):

   -44.1355 -44.1355 -22.2571 -22.2571 -22.1767 -22.1767 -22.0662 -22.0662
    -7.6760  -7.6760  -6.9191  -6.9191  -5.9248  -5.9248  -4.7820  -4.7820
    -4.3116  -4.3116   0.6811   0.6811   1.1493   1.1493   1.3322   1.3322
     2.0519   2.0519   2.4032   2.4032   2.6617   2.6617   3.2452   3.2452
     3.3835   3.3835   3.8371   3.8371   3.9820   3.9820   4.2236   4.2236
     5.0448   5.0448   5.6901   5.6901   6.1458   6.1458   6.6607   6.6607
     7.3523   7.3524

          k = 0.0000-0.3869 0.0000 ( 36477 PWs)   bands (ev):

   -44.1359 -44.1359 -22.2591 -22.2591 -22.1670 -22.1670 -22.0674 -22.0673
    -7.9153  -7.6112  -7.1089  -6.9003  -6.3057  -5.4239  -4.9233  -4.8280
    -4.7471  -3.8252   0.3910   0.7802   1.0863   1.2510   1.4785   1.6974
     2.1911   2.3142   2.4248   2.8008   2.9408   3.0632   3.1354   3.1856
     3.5665   3.5800   3.7658   3.9497   4.0056   4.0289   4.2746   4.6858
     4.7389   5.3601   5.7699   5.9296   5.9987   6.1022   6.2877   6.7230
     7.0084   7.1176

          k = 0.0000-0.3869 0.1485 ( 36452 PWs)   bands (ev):

   -44.1359 -44.1359 -22.2591 -22.2591 -22.1670 -22.1670 -22.0674 -22.0673
    -7.8837  -7.6778  -7.0546  -6.9178  -6.2239  -5.6600  -4.8693  -4.7685
    -4.6065  -3.9370   0.4544   0.9492   1.0202   1.1647   1.2371   1.9330
     2.1477   2.2160   2.3749   2.8373   2.9296   3.0304   3.1361   3.3321
     3.5437   3.7099   3.8296   3.9174   4.0517   4.0758   4.1900   4.6842
     4.7105   4.9458   5.9215   6.0382   6.0645   6.0968   6.5250   6.5700
     6.8327   7.0677

          k = 0.0000-0.3869-0.2971 ( 36454 PWs)   bands (ev):

   -44.1359 -44.1359 -22.2591 -22.2591 -22.1670 -22.1670 -22.0673 -22.0673
    -7.7953  -7.7953  -6.9710  -6.9710  -5.9903  -5.9903  -4.8174  -4.8174
    -4.2305  -4.2305   0.6762   0.6762   1.1730   1.1730   1.3919   1.3919
     2.2848   2.2848   2.6744   2.6744   2.8942   2.8942   3.1799   3.1799
     3.8162   3.8162   3.9983   3.9983   4.0025   4.0025   4.3543   4.3543
     4.6867   4.6867   5.9636   5.9636   6.3002   6.3002   6.4626   6.4626
     6.8801   6.8801

          k =-2.0325 0.0000 0.0000 ( 36452 PWs)   bands (ev):

   -44.1359 -44.1359 -22.2591 -22.2591 -22.1670 -22.1670 -22.0674 -22.0673
    -7.9121  -7.6107  -7.1059  -6.9018  -6.3144  -5.4256  -4.9304  -4.8251
    -4.7451  -3.8257   0.3968   0.7852   1.2086   1.2291   1.4881   1.7406
     2.1916   2.3160   2.4240   2.8091   2.9418   3.0134   3.0684   3.0821
     3.5641   3.7188   3.7541   3.8553   3.9489   3.9688   4.2747   4.6853
     4.7277   5.3523   5.7925   5.9374   6.0350   6.1172   6.3058   6.6756
     7.0084   7.1110

          k =-2.0325 0.0000 0.1485 ( 36456 PWs)   bands (ev):

   -44.1359 -44.1359 -22.2591 -22.2591 -22.1670 -22.1670 -22.0674 -22.0673
    -7.8806  -7.6763  -7.0535  -6.9195  -6.2309  -5.6619  -4.8754  -4.7670
    -4.6047  -3.9371   0.4586   0.9582   1.0369   1.2368   1.2782   1.9407
     2.1680   2.2164   2.3748   2.8441   2.9314   2.9473   3.0172   3.3368
     3.5212   3.7920   3.8188   3.9277   3.9565   4.0069   4.1865   4.6837
     4.7038   4.9457   5.9458   6.0555   6.0677   6.1026   6.5299   6.5416
     6.8337   7.0566

          k =-2.0325 0.0000-0.2971 ( 36460 PWs)   bands (ev):

   -44.1359 -44.1359 -22.2591 -22.2591 -22.1670 -22.1670 -22.0673 -22.0673
    -7.7928  -7.7928  -6.9722  -6.9722  -5.9941  -5.9941  -4.8196  -4.8196
    -4.2297  -4.2297   0.6797   0.6797   1.2401   1.2401   1.3999   1.3999
     2.2852   2.2852   2.6694   2.6694   2.8982   2.8982   3.0816   3.0816
     3.8729   3.8729   3.9254   3.9254   3.9901   3.9901   4.3451   4.3451
     4.6847   4.6847   5.9610   5.9610   6.3097   6.3097   6.4657   6.4657
     6.8659   6.8659

     the Fermi energy is     5.5278 ev

!    total energy              =   -4240.95332577 Ry

     total all-electron energy =   -150287.647020 Ry
     estimated scf accuracy    <          1.9E-11 Ry
     smearing contrib. (-TS)   =       0.00000265 Ry
     internal energy E=F+TS    =   -4240.95332842 Ry

     The total energy is F=E-TS. E is the sum of the following terms:
     one-electron contribution =    -167.27626165 Ry
     hartree contribution      =     117.11209718 Ry
     xc contribution           =    -201.52212690 Ry
     ewald contribution        =    -221.74350046 Ry
     one-center paw contrib.   =   -3767.52353658 Ry

     convergence has been achieved in  18 iterations

     Forces acting on atoms (cartesian axes, Ry/au):

     atom    1 type  1   force =     0.00000000    0.00368067    0.00000000
     atom    2 type  1   force =     0.00000000   -0.00368067    0.00000000
     atom    3 type  2   force =     0.00000000    0.00003866    0.00000000
     atom    4 type  2   force =     0.00000000   -0.00003866    0.00000000
     atom    5 type  2   force =     0.00000000   -0.00084072   -0.00023395
     atom    6 type  2   force =     0.00000000    0.00084072    0.00023395
     atom    7 type  2   force =     0.00000000   -0.00084072    0.00023395
     atom    8 type  2   force =     0.00000000    0.00084072   -0.00023395
     atom    9 type  2   force =     0.00000000   -0.00583921   -0.00623934
     atom   10 type  2   force =     0.00000000    0.00583921    0.00623934
     atom   11 type  2   force =     0.00000000   -0.00583921    0.00623934
     atom   12 type  2   force =     0.00000000    0.00583921   -0.00623934

     Total force =     0.017951     Total SCF correction =     0.000005


     Computing stress (Cartesian axis) and pressure

          total   stress  (Ry/bohr**3)                   (kbar)     P=        1.40
   0.00000861   0.00000000   0.00000000            1.27        0.00        0.00
   0.00000000   0.00000690   0.00000000            0.00        1.01        0.00
   0.00000000   0.00000000   0.00001308            0.00        0.00        1.92

 
     init_run     :     17.96s CPU     18.44s WALL (       1 calls)
     electrons    :    927.08s CPU    937.64s WALL (       1 calls)
     forces       :      6.99s CPU      7.22s WALL (       1 calls)
     stress       :     41.21s CPU     41.76s WALL (       1 calls)

     Called by init_run:
     wfcinit      :     13.86s CPU     14.04s WALL (       1 calls)
     potinit      :      1.34s CPU      1.39s WALL (       1 calls)
     hinit0       :      1.55s CPU      1.59s WALL (       1 calls)

     Called by electrons:
     c_bands      :    768.96s CPU    772.05s WALL (      19 calls)
     sum_band     :    132.31s CPU    136.38s WALL (      19 calls)
     v_of_rho     :      5.63s CPU      5.88s WALL (      19 calls)
     newd         :     14.21s CPU     17.48s WALL (      19 calls)
     PAW_pot      :      5.91s CPU      5.92s WALL (      19 calls)
     mix_rho      :      0.83s CPU      0.86s WALL (      19 calls)

     Called by c_bands:
     init_us_2    :     11.40s CPU     11.46s WALL (    2583 calls)
     cegterg      :    691.70s CPU    694.36s WALL (    1197 calls)

     Called by *egterg:
     cdiaghg      :     26.39s CPU     26.45s WALL (    7949 calls)
     h_psi        :    529.54s CPU    532.06s WALL (    8075 calls)
     s_psi        :     43.23s CPU     43.30s WALL (    8075 calls)
     g_psi        :      1.89s CPU      1.90s WALL (    6815 calls)

     Called by h_psi:
     h_psi:calbec :     37.66s CPU     37.72s WALL (    8075 calls)
     vloc_psi     :    446.12s CPU    448.44s WALL (    8075 calls)
     add_vuspsi   :     42.83s CPU     42.89s WALL (    8075 calls)

     General routines
     calbec       :     51.30s CPU     51.39s WALL (    9587 calls)
     fft          :      3.40s CPU      3.51s WALL (     271 calls)
     ffts         :      0.08s CPU      0.08s WALL (      38 calls)
     fftw         :    416.63s CPU    418.72s WALL (  423110 calls)
     interpolate  :      0.30s CPU      0.30s WALL (      19 calls)
 
     Parallel routines
 
     PWSCF        :  16m33.48s CPU  16m45.39s WALL

 
   This run was terminated on:  15:31:35  19Nov2021            

=------------------------------------------------------------------------------=
   JOB DONE.
=------------------------------------------------------------------------------=
