
     Program PWSCF v.6.8 starts on 19Nov2021 at 15:14:48 

     This program is part of the open-source Quantum ESPRESSO suite
     for quantum simulation of materials; please cite
         "P. Giannozzi et al., J. Phys.:Condens. Matter 21 395502 (2009);
         "P. Giannozzi et al., J. Phys.:Condens. Matter 29 465901 (2017);
         "P. Giannozzi et al., J. Chem. Phys. 152 154105 (2020);
          URL http://www.quantum-espresso.org", 
     in publications or presentations arising from this work. More details at
     http://www.quantum-espresso.org/quote

     Parallel version (MPI), running on    10 processors

     MPI processes distributed on     1 nodes
     R & G space division:  proc/nbgrp/npool/nimage =      10
     70779 MiB available memory on the printing compute node when the environment starts
 
     Waiting for input...
     Reading input from standard input

     Current dimensions of program PWSCF are:
     Max number of different atomic species (ntypx) = 10
     Max number of k-points (npk) =  40000
     Max angular momentum in pseudopotentials (lmaxx) =  4
     file Zr.pbe-spn-kjpaw_psl.1.0.0.UPF: wavefunction(s)  4S 4P renormalized
     file Te.pbe-n-kjpaw_psl.1.0.0.UPF: wavefunction(s)  5S 5P renormalized
     Message from routine setup:
     using ibrav=0 with symmetry is DISCOURAGED, use correct ibrav instead

     Subspace diagonalization in iterative solution of the eigenvalue problem:
     a serial algorithm will be used

 
     Parallelization info
     --------------------
     sticks:   dense  smooth     PW     G-vecs:    dense   smooth      PW
     Min         734     293     87               115340    29174    4753
     Max         735     295     88               115345    29176    4760
     Sum        7345    2937    873              1153415   291749   47557
 
     Using Slab Decomposition
 


     bravais-lattice index     =            0
     lattice parameter (alat)  =      15.5510  a.u.
     unit-cell volume          =    3018.5011 (a.u.)^3
     number of atoms/cell      =           12
     number of atomic types    =            2
     number of electrons       =        84.00
     number of Kohn-Sham states=           50
     kinetic-energy cutoff     =      80.0000  Ry
     charge density cutoff     =     800.0000  Ry
     scf convergence threshold =      1.0E-10
     mixing beta               =       0.7000
     number of iterations used =            8  plain     mixing
     Exchange-correlation= SLA  PW   PBX  PBC
                           (   1   4   3   4   0   0   0)

     celldm(1)=  15.551040  celldm(2)=   0.000000  celldm(3)=   0.000000
     celldm(4)=   0.000000  celldm(5)=   0.000000  celldm(6)=   0.000000

     crystal axes: (cart. coord. in units of alat)
               a(1) = (   0.246007  -0.969268   0.000000 )  
               a(2) = (   0.246007   0.969268   0.000000 )  
               a(3) = (   0.000000   0.000000   1.683031 )  

     reciprocal axes: (cart. coord. in units 2 pi/alat)
               b(1) = (  2.032465 -0.515853  0.000000 )  
               b(2) = (  2.032465  0.515853  0.000000 )  
               b(3) = (  0.000000  0.000000  0.594166 )  


     PseudoPot. # 1 for Zr read from file:
     pseudo/Zr.pbe-spn-kjpaw_psl.1.0.0.UPF
     MD5 check sum: 02112c41713a0468aff2bb39ef194e36
     Pseudo is Projector augmented-wave + core cor, Zval = 12.0
     Generated using &quot;atomic&quot; code by A. Dal Corso  v.6.2.2
     Shape of augmentation charge: PSQ
     Using radial grid of 1225 points,  6 beta functions with: 
                l(1) =   0
                l(2) =   0
                l(3) =   1
                l(4) =   1
                l(5) =   2
                l(6) =   2
     Q(r) pseudized with 0 coefficients 


     PseudoPot. # 2 for Te read from file:
     pseudo/Te.pbe-n-kjpaw_psl.1.0.0.UPF
     MD5 check sum: 66247bff2bd9dbf220fbb0bf5ab56e9d
     Pseudo is Projector augmented-wave + core cor, Zval =  6.0
     Generated using &quot;atomic&quot; code by A. Dal Corso  v.6.3
     Shape of augmentation charge: PSQ
     Using radial grid of 1245 points,  6 beta functions with: 
                l(1) =   0
                l(2) =   0
                l(3) =   1
                l(4) =   1
                l(5) =   2
                l(6) =   2
     Q(r) pseudized with 0 coefficients 


     atomic species   valence    mass     pseudopotential
        Zr            12.00    91.22000     Zr( 1.00)
        Te             6.00   127.60000     Te( 1.00)

      8 Sym. Ops., with inversion, found ( 4 have fractional translation)



   Cartesian axes

     site n.     atom                  positions (alat units)
         1           Zr  tau(   1) = (   0.0000000   0.6047068   0.4207578  )
         2           Zr  tau(   2) = (   0.2460067   0.3645614   1.2622733  )
         3           Te  tau(   3) = (   0.2460067   0.3342303   0.4207578  )
         4           Te  tau(   4) = (   0.0000000   0.6350378   1.2622733  )
         5           Te  tau(   5) = (   0.2460067   0.8102358   0.2523432  )
         6           Te  tau(   6) = (   0.0000000   0.1590324   1.4306878  )
         7           Te  tau(   7) = (   0.2460067   0.8102358   0.5891723  )
         8           Te  tau(   8) = (   0.0000000   0.1590324   1.0938588  )
         9           Te  tau(   9) = (   0.0000000   0.4164697   0.7323878  )
        10           Te  tau(  10) = (   0.2460067   0.5527984   0.9506433  )
        11           Te  tau(  11) = (   0.0000000   0.4164697   0.1091277  )
        12           Te  tau(  12) = (   0.2460067   0.5527984   1.5739033  )

     number of k points=    63  Methfessel-Paxton smearing, width (Ry)=  0.0030
                       cart. coord. in units 2pi/alat
        k(    1) = (   0.0000000   0.0000000   0.0000000), wk =   0.0078125
        k(    2) = (   0.0000000   0.0000000   0.1485415), wk =   0.0156250
        k(    3) = (   0.0000000   0.0000000  -0.2970830), wk =   0.0078125
        k(    4) = (   0.2540581   0.0644816   0.0000000), wk =   0.0312500
        k(    5) = (   0.2540581   0.0644816   0.1485415), wk =   0.0625000
        k(    6) = (   0.2540581   0.0644816  -0.2970830), wk =   0.0312500
        k(    7) = (   0.5081162   0.1289633   0.0000000), wk =   0.0312500
        k(    8) = (   0.5081162   0.1289633   0.1485415), wk =   0.0625000
        k(    9) = (   0.5081162   0.1289633  -0.2970830), wk =   0.0312500
        k(   10) = (   0.7621743   0.1934449   0.0000000), wk =   0.0312500
        k(   11) = (   0.7621743   0.1934449   0.1485415), wk =   0.0625000
        k(   12) = (   0.7621743   0.1934449  -0.2970830), wk =   0.0312500
        k(   13) = (  -1.0162324  -0.2579266   0.0000000), wk =   0.0156250
        k(   14) = (  -1.0162324  -0.2579266   0.1485415), wk =   0.0312500
        k(   15) = (  -1.0162324  -0.2579266  -0.2970830), wk =   0.0156250
        k(   16) = (   0.5081162   0.0000000   0.0000000), wk =   0.0156250
        k(   17) = (   0.5081162   0.0000000   0.1485415), wk =   0.0312500
        k(   18) = (   0.5081162   0.0000000  -0.2970830), wk =   0.0156250
        k(   19) = (   0.7621743   0.0644816   0.0000000), wk =   0.0312500
        k(   20) = (   0.7621743   0.0644816   0.1485415), wk =   0.0625000
        k(   21) = (   0.7621743   0.0644816  -0.2970830), wk =   0.0312500
        k(   22) = (   1.0162324   0.1289633   0.0000000), wk =   0.0312500
        k(   23) = (   1.0162324   0.1289633   0.1485415), wk =   0.0625000
        k(   24) = (   1.0162324   0.1289633  -0.2970830), wk =   0.0312500
        k(   25) = (  -0.7621743  -0.3224082   0.0000000), wk =   0.0312500
        k(   26) = (  -0.7621743  -0.3224082   0.1485415), wk =   0.0625000
        k(   27) = (  -0.7621743  -0.3224082  -0.2970830), wk =   0.0312500
        k(   28) = (  -0.5081162  -0.2579266   0.0000000), wk =   0.0312500
        k(   29) = (  -0.5081162  -0.2579266   0.1485415), wk =   0.0625000
        k(   30) = (  -0.5081162  -0.2579266  -0.2970830), wk =   0.0312500
        k(   31) = (  -0.2540581  -0.1934449   0.0000000), wk =   0.0312500
        k(   32) = (  -0.2540581  -0.1934449   0.1485415), wk =   0.0625000
        k(   33) = (  -0.2540581  -0.1934449  -0.2970830), wk =   0.0312500
        k(   34) = (   0.0000000  -0.1289633   0.0000000), wk =   0.0156250
        k(   35) = (   0.0000000  -0.1289633   0.1485415), wk =   0.0312500
        k(   36) = (   0.0000000  -0.1289633  -0.2970830), wk =   0.0156250
        k(   37) = (   1.0162324   0.0000000   0.0000000), wk =   0.0156250
        k(   38) = (   1.0162324   0.0000000   0.1485415), wk =   0.0312500
        k(   39) = (   1.0162324   0.0000000  -0.2970830), wk =   0.0156250
        k(   40) = (   1.2702905   0.0644816   0.0000000), wk =   0.0312500
        k(   41) = (   1.2702905   0.0644816   0.1485415), wk =   0.0625000
        k(   42) = (   1.2702905   0.0644816  -0.2970830), wk =   0.0312500
        k(   43) = (  -0.5081162  -0.3868899   0.0000000), wk =   0.0312500
        k(   44) = (  -0.5081162  -0.3868899   0.1485415), wk =   0.0625000
        k(   45) = (  -0.5081162  -0.3868899  -0.2970830), wk =   0.0312500
        k(   46) = (  -0.2540581  -0.3224082   0.0000000), wk =   0.0312500
        k(   47) = (  -0.2540581  -0.3224082   0.1485415), wk =   0.0625000
        k(   48) = (  -0.2540581  -0.3224082  -0.2970830), wk =   0.0312500
        k(   49) = (   0.0000000  -0.2579266   0.0000000), wk =   0.0156250
        k(   50) = (   0.0000000  -0.2579266   0.1485415), wk =   0.0312500
        k(   51) = (   0.0000000  -0.2579266  -0.2970830), wk =   0.0156250
        k(   52) = (   1.5243485   0.0000000   0.0000000), wk =   0.0156250
        k(   53) = (   1.5243485   0.0000000   0.1485415), wk =   0.0312500
        k(   54) = (   1.5243485   0.0000000  -0.2970830), wk =   0.0156250
        k(   55) = (  -0.2540581  -0.4513715   0.0000000), wk =   0.0312500
        k(   56) = (  -0.2540581  -0.4513715   0.1485415), wk =   0.0625000
        k(   57) = (  -0.2540581  -0.4513715  -0.2970830), wk =   0.0312500
        k(   58) = (   0.0000000  -0.3868899   0.0000000), wk =   0.0156250
        k(   59) = (   0.0000000  -0.3868899   0.1485415), wk =   0.0312500
        k(   60) = (   0.0000000  -0.3868899  -0.2970830), wk =   0.0156250
        k(   61) = (  -2.0324647   0.0000000   0.0000000), wk =   0.0078125
        k(   62) = (  -2.0324647   0.0000000   0.1485415), wk =   0.0156250
        k(   63) = (  -2.0324647   0.0000000  -0.2970830), wk =   0.0078125

     Dense  grid:  1153415 G-vectors     FFT dimensions: ( 144, 144, 240)

     Smooth grid:   291749 G-vectors     FFT dimensions: (  90,  90, 150)

     Estimated max dynamical RAM per process >     657.19 MB

     Estimated total dynamical RAM >       6.42 GB

     Initial potential from superposition of free atoms

     starting charge   83.99353, renormalised to   84.00000
     Starting wfcs are   66 randomized atomic wfcs
     Checking if some PAW data can be deallocated... 

     total cpu time spent up to now is       22.0 secs

     Self-consistent Calculation

     iteration #  1     ecut=    80.00 Ry     beta= 0.70
     Davidson diagonalization with overlap
     ethr =  1.00E-02,  avg # of iterations =  2.1

     Threshold (ethr) on eigenvalues was too large:
     Diagonalizing with lowered threshold

     Davidson diagonalization with overlap
     ethr =  4.21E-04,  avg # of iterations =  4.0

     total cpu time spent up to now is      111.0 secs

     total energy              =   -4240.73081671 Ry
     estimated scf accuracy    <       0.43606807 Ry

     iteration #  2     ecut=    80.00 Ry     beta= 0.70
     Davidson diagonalization with overlap
     ethr =  5.19E-04,  avg # of iterations =  8.0
     Minimization algorithm failed to find Fermi energy: reverting to bisection
     Possible cause: smearing is larger than the electronic band-gap.

     total cpu time spent up to now is      178.1 secs

     total energy              =   -4240.63909161 Ry
     estimated scf accuracy    <       2.03283560 Ry

     iteration #  3     ecut=    80.00 Ry     beta= 0.70
     Davidson diagonalization with overlap
     ethr =  5.19E-04,  avg # of iterations =  5.3

     total cpu time spent up to now is      233.6 secs

     total energy              =   -4240.93896831 Ry
     estimated scf accuracy    <       0.00916225 Ry

     iteration #  4     ecut=    80.00 Ry     beta= 0.70
     Davidson diagonalization with overlap
     c_bands:  1 eigenvalues not converged
     c_bands:  2 eigenvalues not converged
     c_bands:  1 eigenvalues not converged
     c_bands:  1 eigenvalues not converged
     c_bands:  2 eigenvalues not converged
     c_bands:  2 eigenvalues not converged
     c_bands:  2 eigenvalues not converged
     c_bands:  2 eigenvalues not converged
     c_bands:  1 eigenvalues not converged
     c_bands:  1 eigenvalues not converged
     c_bands:  1 eigenvalues not converged
     c_bands:  1 eigenvalues not converged
     c_bands:  1 eigenvalues not converged
     c_bands:  1 eigenvalues not converged
     c_bands:  1 eigenvalues not converged
     c_bands:  1 eigenvalues not converged
     c_bands:  1 eigenvalues not converged
     c_bands:  1 eigenvalues not converged
     c_bands:  1 eigenvalues not converged
     ethr =  1.09E-05,  avg # of iterations = 17.9

     total cpu time spent up to now is      340.5 secs

     total energy              =   -4240.95019024 Ry
     estimated scf accuracy    <       0.05275525 Ry

     iteration #  5     ecut=    80.00 Ry     beta= 0.70
     Davidson diagonalization with overlap
     ethr =  1.09E-05,  avg # of iterations =  7.2

     total cpu time spent up to now is      397.2 secs

     total energy              =   -4240.95210143 Ry
     estimated scf accuracy    <       0.00948885 Ry

     iteration #  6     ecut=    80.00 Ry     beta= 0.70
     Davidson diagonalization with overlap
     ethr =  1.09E-05,  avg # of iterations =  3.3

     total cpu time spent up to now is      440.9 secs

     total energy              =   -4240.95285641 Ry
     estimated scf accuracy    <       0.00117948 Ry

     iteration #  7     ecut=    80.00 Ry     beta= 0.70
     Davidson diagonalization with overlap
     c_bands:  1 eigenvalues not converged
     ethr =  1.40E-06,  avg # of iterations = 11.3

     total cpu time spent up to now is      515.9 secs

     total energy              =   -4240.95346582 Ry
     estimated scf accuracy    <       0.00141520 Ry

     iteration #  8     ecut=    80.00 Ry     beta= 0.70
     Davidson diagonalization with overlap
     ethr =  1.40E-06,  avg # of iterations =  2.2

     total cpu time spent up to now is      556.0 secs

     total energy              =   -4240.95350372 Ry
     estimated scf accuracy    <       0.00021282 Ry

     iteration #  9     ecut=    80.00 Ry     beta= 0.70
     Davidson diagonalization with overlap
     ethr =  2.53E-07,  avg # of iterations =  6.3

     total cpu time spent up to now is      611.1 secs

     total energy              =   -4240.95357189 Ry
     estimated scf accuracy    <       0.00002539 Ry

     iteration # 10     ecut=    80.00 Ry     beta= 0.70
     Davidson diagonalization with overlap
     ethr =  3.02E-08,  avg # of iterations =  3.2

     total cpu time spent up to now is      653.9 secs

     total energy              =   -4240.95357421 Ry
     estimated scf accuracy    <       0.00000503 Ry

     iteration # 11     ecut=    80.00 Ry     beta= 0.70
     Davidson diagonalization with overlap
     ethr =  5.99E-09,  avg # of iterations =  6.0

     total cpu time spent up to now is      709.8 secs

     total energy              =   -4240.95357635 Ry
     estimated scf accuracy    <       0.00000098 Ry

     iteration # 12     ecut=    80.00 Ry     beta= 0.70
     Davidson diagonalization with overlap
     ethr =  1.16E-09,  avg # of iterations =  3.2

     total cpu time spent up to now is      752.3 secs

     total energy              =   -4240.95357646 Ry
     estimated scf accuracy    <       0.00000009 Ry

     iteration # 13     ecut=    80.00 Ry     beta= 0.70
     Davidson diagonalization with overlap
     ethr =  1.03E-10,  avg # of iterations =  8.0

     total cpu time spent up to now is      818.6 secs

     total energy              =   -4240.95357652 Ry
     estimated scf accuracy    <       0.00000006 Ry

     iteration # 14     ecut=    80.00 Ry     beta= 0.70
     Davidson diagonalization with overlap
     ethr =  7.50E-11,  avg # of iterations =  1.6

     total cpu time spent up to now is      856.5 secs

     total energy              =   -4240.95357651 Ry
     estimated scf accuracy    <       0.00000002 Ry

     iteration # 15     ecut=    80.00 Ry     beta= 0.70
     Davidson diagonalization with overlap
     ethr =  2.64E-11,  avg # of iterations =  5.8

     total cpu time spent up to now is      907.4 secs

     total energy              =   -4240.95357652 Ry
     estimated scf accuracy    <          2.0E-09 Ry

     iteration # 16     ecut=    80.00 Ry     beta= 0.70
     Davidson diagonalization with overlap
     ethr =  2.43E-12,  avg # of iterations =  5.1

     total cpu time spent up to now is      955.8 secs

     total energy              =   -4240.95357652 Ry
     estimated scf accuracy    <          1.1E-09 Ry

     iteration # 17     ecut=    80.00 Ry     beta= 0.70
     Davidson diagonalization with overlap
     ethr =  1.29E-12,  avg # of iterations =  3.3

     total cpu time spent up to now is      997.2 secs

     total energy              =   -4240.95357652 Ry
     estimated scf accuracy    <          2.9E-10 Ry

     iteration # 18     ecut=    80.00 Ry     beta= 0.70
     Davidson diagonalization with overlap
     ethr =  3.50E-13,  avg # of iterations =  5.7

     total cpu time spent up to now is     1048.0 secs

     End of self-consistent calculation

          k = 0.0000 0.0000 0.0000 ( 36359 PWs)   bands (ev):

   -44.1355 -44.1355 -22.2592 -22.2592 -22.1670 -22.1670 -22.0668 -22.0667
    -7.9212  -7.5944  -7.1290  -6.8830  -6.2661  -5.4133  -4.8893  -4.8295
    -4.7789  -3.8243   0.3191   0.7532   0.7825   1.1282   1.4227   1.5334
     2.2022   2.3159   2.4516   2.7539   2.9346   3.0080   3.2768   3.3802
     3.7264   3.8258   3.9960   4.0741   4.2696   4.3387   4.3760   4.6867
     4.8124   5.4660   5.6384   5.8507   5.8759   5.9299   6.1047   6.8182
     7.0044   7.2727

          k = 0.0000 0.0000 0.1485 ( 36415 PWs)   bands (ev):

   -44.1355 -44.1355 -22.2592 -22.2592 -22.1670 -22.1670 -22.0668 -22.0667
    -7.8884  -7.6695  -7.0609  -6.9013  -6.1924  -5.6510  -4.8267  -4.7871
    -4.6234  -3.9389   0.3882   0.8164   0.9025   0.9941   1.0858   1.8999
     2.0494   2.2275   2.3945   2.8015   2.9195   3.1056   3.4038   3.4039
     3.7211   3.8855   3.9745   4.0786   4.2047   4.3616   4.3921   4.6866
     4.7547   4.9684   5.8204   5.9316   5.9320   6.0578   6.4652   6.6320
     6.8238   7.1784

          k = 0.0000 0.0000-0.2971 ( 36410 PWs)   bands (ev):

   -44.1355 -44.1355 -22.2592 -22.2592 -22.1670 -22.1670 -22.0667 -22.0667
    -7.7959  -7.7959  -6.9607  -6.9607  -5.9734  -5.9734  -4.8067  -4.8067
    -4.2384  -4.2384   0.6078   0.6078   0.9363   0.9363   1.3520   1.3520
     2.2984   2.2984   2.6241   2.6241   2.8733   2.8733   3.5227   3.5227
     3.9028   3.9028   4.0403   4.0403   4.3439   4.3439   4.3943   4.3943
     4.6988   4.6988   5.9208   5.9208   6.2244   6.2244   6.4418   6.4418
     6.9457   6.9457

          k = 0.2541 0.0645 0.0000 ( 36396 PWs)   bands (ev):

   -44.1351 -44.1351 -22.2573 -22.2573 -22.1767 -22.1767 -22.0657 -22.0655
    -7.8017  -7.4794  -7.0596  -6.8350  -6.2048  -5.3672  -4.9123  -4.7860
    -4.7346  -3.9822   0.4043   0.8766   0.9104   1.2087   1.2439   1.4321
     1.7284   1.8352   1.9252   2.5725   2.5977   3.1884   3.2871   3.7249
     3.7533   3.7618   3.8289   3.8378   4.0359   4.2484   4.3031   4.3254
     4.4911   4.5676   5.8412   5.9782   6.2060   6.5750   6.5998   6.7152
     7.0180   7.1870

          k = 0.2541 0.0645 0.1485 ( 36423 PWs)   bands (ev):

   -44.1351 -44.1351 -22.2573 -22.2573 -22.1767 -22.1767 -22.0656 -22.0656
    -7.7695  -7.5541  -6.9961  -6.8515  -6.1296  -5.5978  -4.7989  -4.7447
    -4.6508  -4.0734   0.4617   0.9218   0.9359   0.9595   1.1934   1.3906
     1.7592   2.0020   2.2063   2.5603   2.5819   2.9531   3.3570   3.3679
     3.5516   3.7889   3.9387   3.9663   4.0361   4.1656   4.3454   4.3567
     4.6851   4.8241   5.8519   5.9487   6.1605   6.2581   6.3973   6.7526
     7.2191   7.2891

          k = 0.2541 0.0645-0.2971 ( 36436 PWs)   bands (ev):

   -44.1351 -44.1351 -22.2573 -22.2573 -22.1767 -22.1767 -22.0656 -22.0656
    -7.6785  -7.6785  -6.9051  -6.9051  -5.9114  -5.9114  -4.7692  -4.7692
    -4.3206  -4.3206   0.6405   0.6405   1.0323   1.0323   1.1506   1.1506
     2.0463   2.0463   2.4785   2.4785   2.6660   2.6660   3.2077   3.2077
     3.6412   3.6412   3.9550   3.9550   4.1216   4.1216   4.3656   4.3656
     5.0071   5.0071   5.7854   5.7854   6.1457   6.1457   6.4478   6.4478
     7.3975   7.3975

          k = 0.5081 0.1290 0.0000 ( 36499 PWs)   bands (ev):

   -44.1342 -44.1342 -22.2526 -22.2526 -22.2000 -22.2000 -22.0629 -22.0628
    -7.4574  -7.1440  -6.8954  -6.7110  -6.0193  -5.2604  -5.0456  -4.6735
    -4.6255  -4.4518   0.3355   0.5903   0.6411   1.1910   1.2238   1.3614
     1.6421   1.6993   1.9304   2.1014   2.1614   2.2775   2.4561   3.3903
     3.4826   3.5094   3.5621   3.5872   3.7726   3.8656   3.9417   4.1861
     4.3895   5.0176   5.6335   6.0764   6.1420   6.5938   6.6146   6.9701
     7.4507   7.5631

          k = 0.5081 0.1290 0.1485 ( 36476 PWs)   bands (ev):

   -44.1342 -44.1342 -22.2526 -22.2526 -22.2000 -22.2000 -22.0629 -22.0628
    -7.4271  -7.2217  -6.8379  -6.7241  -5.9447  -5.4695  -4.8827  -4.6559
    -4.6400  -4.4780   0.3568   0.6038   0.7563   0.9816   1.2481   1.3380
     1.4209   1.5642   2.0152   2.0955   2.3537   2.4516   2.8135   3.4070
     3.4249   3.4793   3.5207   3.6043   3.7227   3.7551   3.8516   4.2360
     4.3091   4.4955   6.1620   6.1982   6.3473   6.5949   6.6595   6.8356
     7.2914   7.5143

          k = 0.5081 0.1290-0.2971 ( 36466 PWs)   bands (ev):

   -44.1342 -44.1342 -22.2526 -22.2526 -22.2000 -22.2000 -22.0628 -22.0628
    -7.3414  -7.3414  -6.7656  -6.7656  -5.7421  -5.7421  -4.7348  -4.7348
    -4.5556  -4.5556   0.4743   0.4743   1.0130   1.0130   1.0691   1.0691
     1.4286   1.4286   2.0571   2.0571   2.6963   2.6963   3.1682   3.1682
     3.4009   3.4009   3.5587   3.5587   3.7208   3.7208   3.8464   3.8464
     4.3163   4.3163   6.4035   6.4035   6.5627   6.5627   6.8459   6.8459
     7.1595   7.1595

          k = 0.7622 0.1934 0.0000 ( 36521 PWs)   bands (ev):

   -44.1333 -44.1333 -22.2478 -22.2478 -22.2232 -22.2232 -22.0601 -22.0601
    -6.9710  -6.7438  -6.6230  -6.5220  -5.7608  -5.4126  -5.1990  -5.1192
    -4.5486  -4.5120  -0.0159   0.0167   0.4526   0.9884   1.0086   1.2761
     1.4835   1.6029   1.9800   2.1108   2.2405   2.3281   2.4233   2.7947
     2.9117   3.2647   3.3448   3.4651   3.5668   3.6709   3.7182   3.8092
     3.8182   4.5668   5.9563   6.3557   6.4148   6.8637   6.8800   6.9602
     7.3268   7.6269

          k = 0.7622 0.1934 0.1485 ( 36503 PWs)   bands (ev):

   -44.1333 -44.1333 -22.2478 -22.2478 -22.2232 -22.2232 -22.0601 -22.0601
    -6.9475  -6.7969  -6.5929  -6.5306  -5.7084  -5.4635  -5.1878  -5.1311
    -4.5403  -4.5150  -0.0158   0.1867   0.3324   0.8809   0.9904   1.2341
     1.4956   1.6190   1.9329   2.0542   2.1264   2.6147   2.6901   2.8639
     2.8961   3.0745   3.2712   3.3870   3.5248   3.6214   3.6694   3.9329
     3.9756   4.5074   5.7456   6.3676   6.6719   6.7804   6.9507   6.9930
     7.1048   7.6038

          k = 0.7622 0.1934-0.2971 ( 36522 PWs)   bands (ev):

   -44.1333 -44.1333 -22.2478 -22.2478 -22.2232 -22.2232 -22.0601 -22.0601
    -6.8827  -6.8827  -6.5551  -6.5551  -5.5853  -5.5853  -5.1597  -5.1597
    -4.5250  -4.5250   0.1174   0.1174   0.5250   0.5250   1.0828   1.0828
     1.5645   1.5645   2.0133   2.0133   2.3886   2.3886   2.8246   2.8246
     2.9846   2.9846   3.3101   3.3101   3.5969   3.5969   3.9037   3.9037
     4.0789   4.0789   6.1934   6.1934   6.4660   6.4660   7.0010   7.0010
     7.4598   7.4598

          k =-1.0162-0.2579 0.0000 ( 36506 PWs)   bands (ev):

   -44.1330 -44.1330 -22.2457 -22.2457 -22.2329 -22.2329 -22.0589 -22.0589
    -6.7223  -6.7020  -6.0453  -6.0342  -5.9992  -5.9926  -5.3009  -5.3003
    -4.4913  -4.4649  -0.0441  -0.0222   0.2734   0.2950   1.0115   1.0205
     1.4678   1.6675   2.2305   2.3916   2.4036   2.4202   2.8068   2.8135
     2.8165   2.8298   3.2043   3.2574   3.3195   3.3995   3.4780   3.6880
     3.8207   4.1098   6.5929   6.6009   6.6229   6.6691   7.0481   7.1453
     7.1503   7.1849

          k =-1.0162-0.2579 0.1485 ( 36506 PWs)   bands (ev):

   -44.1330 -44.1330 -22.2457 -22.2457 -22.2329 -22.2329 -22.0589 -22.0589
    -6.7183  -6.7039  -6.0684  -6.0606  -5.9746  -5.9699  -5.2982  -5.2979
    -4.4906  -4.4719  -0.1412  -0.1345   0.4878   0.4952   1.0082   1.0234
     1.4631   1.5946   2.0093   2.1157   2.3694   2.3979   2.6900   2.6941
     2.9373   3.0415   3.0913   3.1939   3.5551   3.5704   3.6320   3.7500
     4.0312   4.1614   6.0741   6.0919   6.5083   6.5845   7.1372   7.1562
     7.3515   7.4076

          k =-1.0162-0.2579-0.2971 ( 36528 PWs)   bands (ev):

   -44.1330 -44.1330 -22.2457 -22.2457 -22.2329 -22.2329 -22.0589 -22.0589
    -6.7100  -6.7100  -6.0803  -6.0803  -5.9575  -5.9575  -5.2955  -5.2955
    -4.4844  -4.4844  -0.2011  -0.2011   0.7228   0.7228   0.9585   0.9585
     1.5210   1.5210   1.8010   1.8010   2.3698   2.3698   2.7669   2.7669
     2.8857   2.8857   3.1680   3.1680   3.6357   3.6357   3.8049   3.8049
     4.3481   4.3481   5.6506   5.6506   6.4588   6.4588   7.1668   7.1668
     7.4647   7.4647

          k = 0.5081 0.0000 0.0000 ( 36503 PWs)   bands (ev):

   -44.1342 -44.1342 -22.2526 -22.2526 -22.2000 -22.2000 -22.0629 -22.0628
    -7.4610  -7.1446  -6.8962  -6.7076  -6.0159  -5.2604  -5.0428  -4.6676
    -4.6325  -4.4513   0.3408   0.5938   0.6317   1.1864   1.2247   1.3233
     1.6391   1.6954   1.9166   2.1071   2.1670   2.2538   2.4561   3.3817
     3.5042   3.5269   3.5721   3.5794   3.7803   3.9207   3.9257   4.2235
     4.3916   5.0126   5.6393   6.0534   6.1778   6.5557   6.5629   7.0062
     7.4633   7.5797

          k = 0.5081 0.0000 0.1485 ( 36453 PWs)   bands (ev):

   -44.1342 -44.1342 -22.2526 -22.2526 -22.2000 -22.2000 -22.0629 -22.0628
    -7.4305  -7.2235  -6.8368  -6.7207  -5.9422  -5.4692  -4.8784  -4.6574
    -4.6395  -4.4792   0.3594   0.5981   0.7571   0.9854   1.2532   1.3217
     1.3909   1.5427   2.0129   2.1060   2.3886   2.3936   2.8106   3.4046
     3.4700   3.4842   3.4913   3.6135   3.7138   3.8260   3.8371   4.2783
     4.3190   4.4863   6.1539   6.2080   6.3662   6.5475   6.6224   6.8680
     7.3107   7.5243

          k = 0.5081 0.0000-0.2971 ( 36452 PWs)   bands (ev):

   -44.1342 -44.1342 -22.2526 -22.2526 -22.2000 -22.2000 -22.0628 -22.0628
    -7.3443  -7.3443  -6.7628  -6.7628  -5.7411  -5.7411  -4.7309  -4.7309
    -4.5584  -4.5584   0.4722   0.4722   1.0143   1.0143   1.0765   1.0765
     1.3915   1.3915   2.0598   2.0598   2.6870   2.6870   3.1611   3.1611
     3.4056   3.4056   3.5711   3.5711   3.7495   3.7495   3.8437   3.8437
     4.3362   4.3362   6.4190   6.4190   6.5266   6.5266   6.8637   6.8637
     7.1604   7.1604

          k = 0.7622 0.0645 0.0000 ( 36505 PWs)   bands (ev):

   -44.1333 -44.1333 -22.2478 -22.2478 -22.2232 -22.2232 -22.0601 -22.0601
    -6.9790  -6.7414  -6.6244  -6.5150  -5.7608  -5.4096  -5.1996  -5.1184
    -4.5388  -4.5227  -0.0061   0.0131   0.4662   0.9973   1.0200   1.2899
     1.4475   1.5654   1.9480   2.1307   2.2619   2.3086   2.3599   2.7698
     2.9005   3.3125   3.3631   3.5091   3.5734   3.6389   3.6998   3.8291
     3.8329   4.5980   5.9537   6.3411   6.4179   6.8521   6.9192   6.9210
     7.3412   7.6468

          k = 0.7622 0.0645 0.1485 ( 36509 PWs)   bands (ev):

   -44.1333 -44.1333 -22.2478 -22.2478 -22.2232 -22.2232 -22.0601 -22.0601
    -6.9550  -6.7991  -6.5895  -6.5235  -5.7088  -5.4623  -5.1870  -5.1301
    -4.5334  -4.5225  -0.0089   0.1852   0.3414   0.8735   1.0150   1.2489
     1.4636   1.6179   1.9631   1.9905   2.0535   2.6260   2.6813   2.8555
     2.8753   3.0783   3.3223   3.3931   3.5556   3.6091   3.6542   3.9636
     3.9907   4.5035   5.7706   6.3459   6.6847   6.7814   6.9507   7.0057
     7.0781   7.6236

          k = 0.7622 0.0645-0.2971 ( 36472 PWs)   bands (ev):

   -44.1333 -44.1333 -22.2478 -22.2478 -22.2232 -22.2232 -22.0601 -22.0601
    -6.8885  -6.8885  -6.5486  -6.5486  -5.5858  -5.5858  -5.1584  -5.1584
    -4.5252  -4.5252   0.1253   0.1253   0.5179   0.5179   1.1047   1.1047
     1.5583   1.5583   1.9619   1.9619   2.3701   2.3701   2.8273   2.8273
     2.9688   2.9688   3.3671   3.3671   3.5941   3.5941   3.8913   3.8913
     4.0942   4.0942   6.2194   6.2194   6.4662   6.4662   6.9693   6.9693
     7.4874   7.4874

          k = 1.0162 0.1290 0.0000 ( 36514 PWs)   bands (ev):

   -44.1330 -44.1330 -22.2457 -22.2457 -22.2329 -22.2329 -22.0589 -22.0589
    -6.7223  -6.7020  -6.0451  -6.0344  -5.9992  -5.9926  -5.3009  -5.3003
    -4.4913  -4.4649  -0.0498  -0.0163   0.2697   0.2989   1.0047   1.0284
     1.4740   1.6580   2.2288   2.3938   2.4000   2.4185   2.7985   2.8023
     2.8131   2.8700   3.2229   3.2389   3.2985   3.3871   3.5234   3.6676
     3.8057   4.1242   6.5877   6.5887   6.6355   6.6763   7.0685   7.1461
     7.1524   7.1700

          k = 1.0162 0.1290 0.1485 ( 36524 PWs)   bands (ev):

   -44.1330 -44.1330 -22.2457 -22.2457 -22.2329 -22.2329 -22.0589 -22.0589
    -6.7183  -6.7039  -6.0683  -6.0607  -5.9746  -5.9699  -5.2982  -5.2978
    -4.4906  -4.4719  -0.1435  -0.1326   0.4892   0.4944   1.0095   1.0224
     1.4687   1.5890   2.0211   2.0988   2.3701   2.3936   2.6524   2.7384
     2.9468   3.0536   3.0839   3.1842   3.5257   3.6017   3.6378   3.7423
     4.0100   4.1808   6.0673   6.1026   6.5050   6.5871   7.1419   7.1555
     7.3600   7.4000

          k = 1.0162 0.1290-0.2971 ( 36516 PWs)   bands (ev):

   -44.1330 -44.1330 -22.2457 -22.2457 -22.2329 -22.2329 -22.0589 -22.0589
    -6.7100  -6.7100  -6.0803  -6.0803  -5.9575  -5.9575  -5.2955  -5.2955
    -4.4844  -4.4844  -0.2012  -0.2012   0.7232   0.7232   0.9583   0.9583
     1.5220   1.5220   1.8018   1.8018   2.3614   2.3614   2.7505   2.7505
     2.9254   2.9254   3.1503   3.1503   3.6385   3.6385   3.8023   3.8023
     4.3486   4.3486   5.6530   5.6530   6.4582   6.4582   7.1682   7.1682
     7.4656   7.4656

          k =-0.7622-0.3224 0.0000 ( 36511 PWs)   bands (ev):

   -44.1333 -44.1333 -22.2478 -22.2478 -22.2232 -22.2232 -22.0601 -22.0601
    -6.9588  -6.7481  -6.6211  -6.5318  -5.7608  -5.4167  -5.1982  -5.1203
    -4.5563  -4.5031  -0.0295   0.0221   0.4335   0.9555   1.0244   1.2589
     1.5039   1.6666   2.0452   2.0865   2.2494   2.3535   2.4515   2.8310
     2.9238   3.2118   3.3298   3.4596   3.5498   3.6388   3.6693   3.7785
     3.8968   4.5136   5.9600   6.3523   6.4462   6.7815   6.9229   7.0263
     7.2962   7.6003

          k =-0.7622-0.3224 0.1485 ( 36492 PWs)   bands (ev):

   -44.1333 -44.1333 -22.2478 -22.2478 -22.2232 -22.2232 -22.0601 -22.0601
    -6.9361  -6.7942  -6.5979  -6.5407  -5.7079  -5.4651  -5.1887  -5.1325
    -4.5456  -4.5087  -0.0257   0.1900   0.3191   0.8862   0.9690   1.2141
     1.5293   1.6253   1.9160   2.1541   2.2041   2.6039   2.6837   2.8820
     2.9125   3.0919   3.2135   3.3691   3.4748   3.5997   3.7167   3.8801
     3.9666   4.5115   5.7124   6.4023   6.6437   6.7771   6.9183   7.0385
     7.1328   7.5636

          k =-0.7622-0.3224-0.2971 ( 36508 PWs)   bands (ev):

   -44.1333 -44.1333 -22.2478 -22.2478 -22.2232 -22.2232 -22.0601 -22.0601
    -6.8740  -6.8740  -6.5648  -6.5648  -5.5846  -5.5846  -5.1615  -5.1615
    -4.5247  -4.5247   0.1064   0.1064   0.5346   0.5346   1.0568   1.0568
     1.5729   1.5729   2.0722   2.0722   2.4327   2.4327   2.8217   2.8217
     3.0080   3.0080   3.2290   3.2290   3.5948   3.5948   3.8999   3.8999
     4.0753   4.0753   6.1600   6.1600   6.4642   6.4642   7.0530   7.0530
     7.4122   7.4122

          k =-0.5081-0.2579 0.0000 ( 36480 PWs)   bands (ev):

   -44.1342 -44.1342 -22.2526 -22.2526 -22.2000 -22.2000 -22.0629 -22.0628
    -7.4487  -7.1425  -6.8940  -6.7188  -6.0277  -5.2605  -5.0523  -4.6821
    -4.6139  -4.4529   0.3229   0.5910   0.6508   1.2018   1.2397   1.4465
     1.6465   1.7181   1.9652   2.0877   2.1541   2.3200   2.4538   3.3940
     3.4104   3.4846   3.5539   3.6037   3.7497   3.7583   3.9652   4.1069
     4.3805   5.0278   5.6217   6.0491   6.1411   6.6914   6.7365   6.8848
     7.4088   7.5256

          k =-0.5081-0.2579 0.1485 ( 36485 PWs)   bands (ev):

   -44.1342 -44.1342 -22.2526 -22.2526 -22.2000 -22.2000 -22.0629 -22.0628
    -7.4188  -7.2172  -6.8408  -6.7319  -5.9509  -5.4701  -4.8927  -4.6525
    -4.6411  -4.4752   0.3504   0.6168   0.7530   0.9727   1.2515   1.3579
     1.5042   1.6255   2.0118   2.0773   2.3399   2.5144   2.8201   3.3295
     3.4287   3.4724   3.5450   3.5890   3.6172   3.7457   3.8589   4.1536
     4.2721   4.5122   6.1515   6.1993   6.3076   6.6962   6.7585   6.7692
     7.2380   7.4934

          k =-0.5081-0.2579-0.2971 ( 36478 PWs)   bands (ev):

   -44.1342 -44.1342 -22.2526 -22.2526 -22.2000 -22.2000 -22.0628 -22.0628
    -7.3343  -7.3343  -6.7725  -6.7725  -5.7446  -5.7446  -4.7437  -4.7437
    -4.5493  -4.5493   0.4789   0.4789   1.0088   1.0088   1.0568   1.0568
     1.5225   1.5225   2.0461   2.0461   2.7234   2.7234   3.1726   3.1726
     3.3838   3.3838   3.5070   3.5070   3.6896   3.6896   3.8497   3.8497
     4.2691   4.2691   6.3677   6.3677   6.6397   6.6397   6.8072   6.8072
     7.1646   7.1646

          k =-0.2541-0.1934 0.0000 ( 36410 PWs)   bands (ev):

   -44.1351 -44.1351 -22.2573 -22.2573 -22.1767 -22.1767 -22.0657 -22.0655
    -7.7957  -7.4783  -7.0544  -6.8404  -6.2174  -5.3693  -4.9211  -4.7932
    -4.7224  -3.9832   0.4294   0.8833   0.9792   1.2045   1.2725   1.4670
     1.7530   1.8591   1.9270   2.5403   2.5880   3.2504   3.2618   3.6683
     3.7023   3.7283   3.7953   3.8632   3.8963   4.1945   4.2818   4.3030
     4.3785   4.6013   5.8969   6.0096   6.2744   6.5765   6.6368   6.7391
     6.9976   7.1062

          k =-0.2541-0.1934 0.1485 ( 36427 PWs)   bands (ev):

   -44.1351 -44.1351 -22.2573 -22.2573 -22.1767 -22.1767 -22.0656 -22.0656
    -7.7637  -7.5511  -6.9945  -6.8566  -6.1397  -5.6005  -4.8167  -4.7377
    -4.6447  -4.0734   0.4853   0.9220   0.9516   1.0392   1.2273   1.4054
     1.7668   2.0052   2.2359   2.5377   2.5701   2.9391   3.3782   3.4092
     3.5617   3.6884   3.8035   3.9011   3.9892   4.1407   4.3010   4.3093
     4.6756   4.8257   5.8432   5.9725   6.1570   6.3287   6.4647   6.7535
     7.1792   7.2787

          k =-0.2541-0.1934-0.2971 ( 36422 PWs)   bands (ev):

   -44.1351 -44.1351 -22.2573 -22.2573 -22.1767 -22.1767 -22.0656 -22.0656
    -7.6737  -7.6737  -6.9081  -6.9081  -5.9170  -5.9170  -4.7736  -4.7736
    -4.3186  -4.3186   0.6595   0.6595   1.0852   1.0852   1.1645   1.1645
     2.0494   2.0494   2.4741   2.4741   2.6658   2.6658   3.2234   3.2234
     3.6289   3.6289   3.8260   3.8260   4.1000   4.1000   4.3125   4.3125
     5.0190   5.0190   5.7501   5.7501   6.1649   6.1649   6.5147   6.5147
     7.3817   7.3818

          k = 0.0000-0.1290 0.0000 ( 36417 PWs)   bands (ev):

   -44.1355 -44.1355 -22.2592 -22.2592 -22.1670 -22.1670 -22.0668 -22.0667
    -7.9180  -7.5938  -7.1253  -6.8859  -6.2741  -5.4150  -4.8953  -4.8347
    -4.7698  -3.8249   0.3373   0.7574   0.8235   1.1380   1.4340   1.5623
     2.2028   2.3155   2.4508   2.7609   2.9360   3.0121   3.3150   3.3726
     3.6795   3.8147   3.8741   4.0127   4.2697   4.2844   4.3281   4.6861
     4.8010   5.4348   5.6606   5.8720   5.8835   5.9792   6.1529   6.8189
     7.0045   7.2331

          k = 0.0000-0.1290 0.1485 ( 36419 PWs)   bands (ev):

   -44.1355 -44.1355 -22.2592 -22.2592 -22.1670 -22.1670 -22.0668 -22.0667
    -7.8854  -7.6679  -7.0592  -6.9038  -6.1991  -5.6531  -4.8368  -4.7822
    -4.6210  -3.9390   0.4059   0.8584   0.9113   0.9991   1.1061   1.9051
     2.0668   2.2281   2.3945   2.8071   2.9215   3.1125   3.3748   3.4369
     3.7123   3.8609   3.8752   3.9944   4.2018   4.3083   4.3468   4.6858
     4.7476   4.9603   5.8331   5.9504   5.9783   6.0632   6.4839   6.6315
     6.8248   7.1573

          k = 0.0000-0.1290-0.2971 ( 36464 PWs)   bands (ev):

   -44.1355 -44.1355 -22.2592 -22.2592 -22.1670 -22.1670 -22.0667 -22.0667
    -7.7933  -7.7933  -6.9618  -6.9618  -5.9774  -5.9774  -4.8089  -4.8089
    -4.2376  -4.2376   0.6277   0.6277   0.9605   0.9605   1.3586   1.3586
     2.2989   2.2989   2.6355   2.6355   2.8769   2.8769   3.5149   3.5149
     3.8438   3.8438   4.0327   4.0327   4.2508   4.2508   4.4047   4.4047
     4.6966   4.6966   5.9395   5.9395   6.2392   6.2392   6.4446   6.4446
     6.9419   6.9419

          k = 1.0162 0.0000 0.0000 ( 36499 PWs)   bands (ev):

   -44.1330 -44.1330 -22.2457 -22.2457 -22.2329 -22.2329 -22.0589 -22.0589
    -6.7223  -6.7020  -6.0449  -6.0346  -5.9992  -5.9925  -5.3009  -5.3003
    -4.4913  -4.4649  -0.0541  -0.0120   0.2668   0.3020   1.0010   1.0331
     1.4810   1.6477   2.2269   2.3964   2.3971   2.4162   2.7941   2.7993
     2.8111   2.8959   3.2400   3.2460   3.2623   3.3697   3.5887   3.6229
     3.7924   4.1372   6.5812   6.5831   6.6434   6.6829   7.1006   7.1434
     7.1471   7.1544

          k = 1.0162 0.0000 0.1485 ( 36485 PWs)   bands (ev):

   -44.1330 -44.1330 -22.2457 -22.2457 -22.2329 -22.2329 -22.0589 -22.0589
    -6.7183  -6.7039  -6.0682  -6.0608  -5.9745  -5.9700  -5.2983  -5.2978
    -4.4906  -4.4719  -0.1451  -0.1313   0.4920   0.4922   1.0112   1.0210
     1.4749   1.5827   2.0424   2.0724   2.3754   2.3846   2.6393   2.7557
     2.9627   3.0691   3.0704   3.1727   3.5127   3.6075   3.6567   3.7308
     3.9926   4.1963   6.0635   6.1101   6.5020   6.5895   7.1486   7.1528
     7.3779   7.3830

          k = 1.0162 0.0000-0.2971 ( 36514 PWs)   bands (ev):

   -44.1330 -44.1330 -22.2457 -22.2457 -22.2329 -22.2329 -22.0589 -22.0589
    -6.7100  -6.7100  -6.0803  -6.0803  -5.9575  -5.9575  -5.2955  -5.2955
    -4.4844  -4.4844  -0.2013  -0.2013   0.7236   0.7236   0.9582   0.9582
     1.5231   1.5231   1.8026   1.8026   2.3532   2.3532   2.7392   2.7392
     2.9652   2.9652   3.1271   3.1271   3.6413   3.6413   3.7997   3.7997
     4.3491   4.3491   5.6555   5.6555   6.4576   6.4576   7.1696   7.1696
     7.4665   7.4665

          k = 1.2703 0.0645 0.0000 ( 36468 PWs)   bands (ev):

   -44.1333 -44.1333 -22.2478 -22.2478 -22.2232 -22.2232 -22.0601 -22.0601
    -6.9494  -6.7520  -6.6198  -6.5387  -5.7609  -5.4196  -5.1975  -5.1212
    -4.5603  -4.4982  -0.0389   0.0259   0.4200   0.9374   1.0355   1.2478
     1.5076   1.7133   2.0712   2.1120   2.2702   2.3710   2.4315   2.8589
     2.9280   3.1701   3.3594   3.4981   3.5083   3.5813   3.6386   3.7290
     3.9829   4.4648   5.9627   6.3474   6.4802   6.7220   6.9561   7.0866
     7.2601   7.5948

          k = 1.2703 0.0645 0.1485 ( 36490 PWs)   bands (ev):

   -44.1333 -44.1333 -22.2478 -22.2478 -22.2232 -22.2232 -22.0601 -22.0601
    -6.9273  -6.7927  -6.6015  -6.5480  -5.7075  -5.4662  -5.1893  -5.1335
    -4.5483  -4.5053  -0.0329   0.1933   0.3091   0.8845   0.9632   1.2011
     1.5454   1.6341   1.9105   2.2260   2.2638   2.5955   2.6639   2.8916
     2.9254   3.1205   3.1765   3.3448   3.4628   3.5519   3.7613   3.8276
     3.9709   4.5129   5.6906   6.4319   6.6143   6.7742   6.9006   7.0898
     7.1442   7.5257

          k = 1.2703 0.0645-0.2971 ( 36480 PWs)   bands (ev):

   -44.1333 -44.1333 -22.2478 -22.2478 -22.2232 -22.2232 -22.0601 -22.0601
    -6.8675  -6.8675  -6.5719  -6.5719  -5.5842  -5.5842  -5.1628  -5.1628
    -4.5244  -4.5244   0.0988   0.0988   0.5410   0.5410   1.0414   1.0414
     1.5790   1.5790   2.1021   2.1021   2.4814   2.4814   2.8219   2.8219
     3.0251   3.0251   3.1658   3.1658   3.5904   3.5904   3.8818   3.8818
     4.0862   4.0862   6.1382   6.1382   6.4623   6.4623   7.0971   7.0971
     7.3697   7.3697

          k =-0.5081-0.3869 0.0000 ( 36463 PWs)   bands (ev):

   -44.1342 -44.1342 -22.2526 -22.2526 -22.2000 -22.2000 -22.0629 -22.0628
    -7.4396  -7.1410  -6.8936  -6.7257  -6.0363  -5.2605  -5.0591  -4.6876
    -4.6055  -4.4540   0.3108   0.6013   0.6451   1.2121   1.2688   1.5451
     1.6523   1.7283   2.0025   2.0693   2.1806   2.3258   2.4474   3.2813
     3.4349   3.4811   3.5054   3.6563   3.6868   3.7322   3.8877   4.1040
     4.3681   5.0348   5.6121   5.9590   6.2079   6.7995   6.8006   6.8625
     7.3381   7.5064

          k =-0.5081-0.3869 0.1485 ( 36477 PWs)   bands (ev):

   -44.1342 -44.1342 -22.2526 -22.2526 -22.2000 -22.2000 -22.0629 -22.0628
    -7.4101  -7.2126  -6.8446  -6.7393  -5.9571  -5.4707  -4.9023  -4.6496
    -4.6421  -4.4724   0.3444   0.6295   0.7468   0.9643   1.2634   1.3716
     1.6058   1.6974   1.9960   2.0596   2.3483   2.5445   2.8273   3.2297
     3.4335   3.4637   3.5034   3.5625   3.6197   3.7347   3.8419   4.1149
     4.2164   4.5260   6.1024   6.2269   6.2831   6.6816   6.8021   6.8927
     7.1664   7.4876

          k =-0.5081-0.3869-0.2971 ( 36492 PWs)   bands (ev):

   -44.1342 -44.1342 -22.2526 -22.2526 -22.2000 -22.2000 -22.0628 -22.0628
    -7.3269  -7.3269  -6.7797  -6.7797  -5.7470  -5.7470  -4.7522  -4.7522
    -4.5434  -4.5434   0.4832   0.4832   1.0034   1.0034   1.0490   1.0490
     1.6324   1.6324   2.0223   2.0223   2.7609   2.7609   3.1329   3.1329
     3.3656   3.3656   3.4661   3.4661   3.6825   3.6825   3.8479   3.8479
     4.2256   4.2256   6.3338   6.3338   6.6806   6.6806   6.7935   6.7935
     7.1863   7.1863

          k =-0.2541-0.3224 0.0000 ( 36485 PWs)   bands (ev):

   -44.1351 -44.1351 -22.2573 -22.2573 -22.1767 -22.1767 -22.0657 -22.0655
    -7.7870  -7.4768  -7.0476  -6.8471  -6.2358  -5.3723  -4.9343  -4.7961
    -4.7116  -3.9845   0.4550   0.8944   1.0987   1.1961   1.3210   1.5383
     1.7897   1.8934   1.9300   2.4687   2.5446   3.2354   3.3545   3.5069
     3.6015   3.6669   3.7400   3.8208   3.9379   4.1419   4.1589   4.2680
     4.3222   4.6193   5.9851   6.0395   6.3379   6.5804   6.6898   6.7779
     6.9217   7.0337

          k =-0.2541-0.3224 0.1485 ( 36445 PWs)   bands (ev):

   -44.1351 -44.1351 -22.2573 -22.2573 -22.1767 -22.1767 -22.0656 -22.0656
    -7.7554  -7.5468  -6.9929  -6.8631  -6.1544  -5.6041  -4.8368  -4.7320
    -4.6373  -4.0734   0.5085   0.9303   0.9684   1.1675   1.2997   1.4297
     1.7853   2.0091   2.2810   2.4719   2.5325   2.9310   3.3940   3.4601
     3.5054   3.5447   3.6615   3.8950   3.9175   4.0879   4.2148   4.2710
     4.6965   4.8108   5.8336   6.0057   6.1555   6.3688   6.5617   6.7506
     7.1413   7.2607

          k =-0.2541-0.3224-0.2971 ( 36442 PWs)   bands (ev):

   -44.1351 -44.1351 -22.2573 -22.2573 -22.1767 -22.1767 -22.0656 -22.0656
    -7.6666  -7.6666  -6.9126  -6.9126  -5.9248  -5.9248  -4.7800  -4.7800
    -4.3157  -4.3157   0.6768   0.6768   1.1418   1.1418   1.2312   1.2312
     2.0566   2.0566   2.4494   2.4494   2.6623   2.6623   3.2461   3.2461
     3.4871   3.4871   3.7977   3.7977   4.0485   4.0485   4.2505   4.2505
     5.0362   5.0362   5.7114   5.7114   6.1579   6.1579   6.6067   6.6067
     7.3629   7.3629

          k = 0.0000-0.2579 0.0000 ( 36445 PWs)   bands (ev):

   -44.1355 -44.1355 -22.2592 -22.2592 -22.1670 -22.1670 -22.0668 -22.0667
    -7.9103  -7.5925  -7.1167  -6.8922  -6.2940  -5.4191  -4.9124  -4.8362
    -4.7566  -3.8261   0.3730   0.7680   0.9339   1.1873   1.4600   1.6254
     2.2040   2.3160   2.4490   2.7787   2.9392   3.0314   3.3126   3.4202
     3.4699   3.6480   3.7875   3.9566   4.1558   4.1938   4.2700   4.6848
     4.7735   5.3902   5.7154   5.9021   5.9271   6.0566   6.2399   6.7941
     7.0047   7.1598

          k = 0.0000-0.2579 0.1485 ( 36452 PWs)   bands (ev):

   -44.1355 -44.1355 -22.2592 -22.2592 -22.1670 -22.1670 -22.0668 -22.0667
    -7.8779  -7.6641  -7.0555  -6.9096  -6.2153  -5.6579  -4.8561  -4.7751
    -4.6156  -3.9392   0.4391   0.9252   0.9613   1.0487   1.1570   1.9194
     2.1078   2.2293   2.3945   2.8212   2.9262   3.1140   3.3174   3.4147
     3.6367   3.6617   3.8500   3.9103   4.1836   4.1944   4.2251   4.6840
     4.7308   4.9517   5.8709   5.9997   6.0376   6.0765   6.5169   6.6136
     6.8271   7.1100

          k = 0.0000-0.2579-0.2971 ( 36454 PWs)   bands (ev):

   -44.1355 -44.1355 -22.2592 -22.2592 -22.1670 -22.1670 -22.0667 -22.0667
    -7.7870  -7.7870  -6.9647  -6.9647  -5.9867  -5.9867  -4.8143  -4.8143
    -4.2356  -4.2356   0.6619   0.6619   1.0449   1.0449   1.3754   1.3754
     2.3000   2.3000   2.6615   2.6615   2.8857   2.8857   3.3972   3.3972
     3.7755   3.7755   4.0139   4.0139   4.1192   4.1192   4.3812   4.3812
     4.6914   4.6914   5.9608   5.9608   6.2727   6.2727   6.4514   6.4514
     6.9208   6.9208

          k = 1.5243 0.0000 0.0000 ( 36439 PWs)   bands (ev):

   -44.1342 -44.1342 -22.2526 -22.2526 -22.2000 -22.2000 -22.0629 -22.0628
    -7.4358  -7.1404  -6.8937  -6.7283  -6.0400  -5.2605  -5.0619  -4.6892
    -4.6026  -4.4545   0.3059   0.6124   0.6344   1.2163   1.2832   1.6024
     1.6796   1.6896   2.0190   2.0645   2.2291   2.2895   2.4433   3.2384
     3.4335   3.4487   3.5132   3.6969   3.7006   3.7294   3.7834   4.1239
     4.3623   5.0365   5.6087   5.9209   6.2385   6.7634   6.8524   6.9199
     7.2937   7.5420

          k = 1.5243 0.0000 0.1485 ( 36476 PWs)   bands (ev):

   -44.1342 -44.1342 -22.2526 -22.2526 -22.2000 -22.2000 -22.0629 -22.0628
    -7.4064  -7.2107  -6.8464  -6.7422  -5.9597  -5.4709  -4.9062  -4.6486
    -4.6424  -4.4713   0.3419   0.6350   0.7432   0.9611   1.2695   1.3766
     1.6678   1.7178   1.9963   2.0392   2.3622   2.5424   2.8306   3.1900
     3.3941   3.4682   3.4886   3.5810   3.6462   3.7230   3.8021   4.1505
     4.1588   4.5315   6.0769   6.2407   6.2770   6.6517   6.8428   6.9617
     7.1197   7.5024

          k = 1.5243 0.0000-0.2971 ( 36508 PWs)   bands (ev):

   -44.1342 -44.1342 -22.2526 -22.2526 -22.2000 -22.2000 -22.0628 -22.0628
    -7.3238  -7.3238  -6.7828  -6.7828  -5.7480  -5.7480  -4.7556  -4.7556
    -4.5411  -4.5411   0.4849   0.4849   1.0010   1.0010   1.0465   1.0465
     1.6883   1.6883   2.0038   2.0038   2.7825   2.7825   3.0938   3.0938
     3.3659   3.3659   3.4567   3.4567   3.6803   3.6803   3.8447   3.8447
     4.2096   4.2096   6.3201   6.3201   6.6784   6.6784   6.8025   6.8025
     7.2028   7.2029

          k =-0.2541-0.4514 0.0000 ( 36444 PWs)   bands (ev):

   -44.1351 -44.1351 -22.2573 -22.2573 -22.1767 -22.1767 -22.0657 -22.0655
    -7.7807  -7.4758  -7.0434  -6.8509  -6.2492  -5.3742  -4.9438  -4.7956
    -4.7063  -3.9854   0.4661   0.9036   1.1884   1.2195   1.3369   1.6229
     1.8168   1.9197   1.9389   2.3904   2.4713   3.2281   3.3633   3.4367
     3.4887   3.7115   3.7510   3.8137   3.8661   4.1038   4.1125   4.2026
     4.3163   4.6309   6.0544   6.0588   6.3660   6.5837   6.7268   6.8066
     6.8325   7.0092

          k =-0.2541-0.4514 0.1485 ( 36461 PWs)   bands (ev):

   -44.1351 -44.1351 -22.2573 -22.2573 -22.1767 -22.1767 -22.0656 -22.0656
    -7.7494  -7.5438  -6.9923  -6.8672  -6.1649  -5.6066  -4.8492  -4.7292
    -4.6326  -4.0734   0.5181   0.9420   0.9719   1.2933   1.3474   1.4611
     1.8114   2.0109   2.3273   2.3976   2.4546   2.9386   3.3290   3.3661
     3.4730   3.5547   3.7295   3.8506   3.8889   3.9640   4.2028   4.2408
     4.7327   4.7826   5.8282   6.0293   6.1627   6.3616   6.6288   6.7407
     7.1299   7.2462

          k =-0.2541-0.4514-0.2971 ( 36490 PWs)   bands (ev):

   -44.1351 -44.1351 -22.2573 -22.2573 -22.1767 -22.1767 -22.0656 -22.0656
    -7.6616  -7.6616  -6.9159  -6.9159  -5.9302  -5.9302  -4.7845  -4.7845
    -4.3136  -4.3136   0.6837   0.6837   1.1554   1.1554   1.3315   1.3315
     2.0659   2.0659   2.4011   2.4011   2.6618   2.6618   3.2441   3.2441
     3.3796   3.3796   3.8352   3.8352   3.9818   3.9818   4.2202   4.2202
     5.0488   5.0488   5.6879   5.6879   6.1424   6.1424   6.6631   6.6631
     7.3528   7.3529

          k = 0.0000-0.3869 0.0000 ( 36477 PWs)   bands (ev):

   -44.1355 -44.1355 -22.2592 -22.2592 -22.1670 -22.1670 -22.0668 -22.0667
    -7.9024  -7.5912  -7.1087  -6.8972  -6.3146  -5.4231  -4.9296  -4.8317
    -4.7492  -3.8274   0.3959   0.7795   1.0842   1.2491   1.4845   1.6962
     2.2053   2.3185   2.4471   2.7977   2.9418   3.0650   3.1324   3.1803
     3.5715   3.5742   3.7598   3.9493   4.0032   4.0270   4.2701   4.6837
     4.7465   5.3644   5.7711   5.9208   5.9950   6.1045   6.2983   6.7198
     7.0047   7.1224

          k = 0.0000-0.3869 0.1485 ( 36452 PWs)   bands (ev):

   -44.1355 -44.1355 -22.2592 -22.2592 -22.1670 -22.1670 -22.0668 -22.0667
    -7.8704  -7.6603  -7.0525  -6.9146  -6.2320  -5.6626  -4.8721  -4.7706
    -4.6108  -3.9394   0.4582   0.9498   1.0209   1.1645   1.2356   1.9363
     2.1495   2.2306   2.3944   2.8365   2.9306   3.0288   3.1311   3.3319
     3.5461   3.7069   3.8244   3.9168   4.0505   4.0738   4.1864   4.6826
     4.7145   4.9495   5.9183   6.0400   6.0659   6.0902   6.5353   6.5686
     6.8294   7.0737

          k = 0.0000-0.3869-0.2971 ( 36454 PWs)   bands (ev):

   -44.1355 -44.1355 -22.2592 -22.2592 -22.1670 -22.1670 -22.0667 -22.0667
    -7.7806  -7.7806  -6.9677  -6.9677  -5.9960  -5.9960  -4.8197  -4.8197
    -4.2336  -4.2336   0.6789   0.6789   1.1717   1.1717   1.3935   1.3935
     2.3011   2.3011   2.6763   2.6763   2.8949   2.8949   3.1753   3.1753
     3.8151   3.8151   3.9946   3.9946   4.0017   4.0017   4.3563   4.3563
     4.6866   4.6866   5.9626   5.9626   6.3005   6.3005   6.4585   6.4585
     6.8899   6.8899

          k =-2.0325 0.0000 0.0000 ( 36452 PWs)   bands (ev):

   -44.1355 -44.1355 -22.2592 -22.2592 -22.1670 -22.1670 -22.0668 -22.0667
    -7.8991  -7.5906  -7.1056  -6.8988  -6.3234  -5.4247  -4.9365  -4.8291
    -4.7472  -3.8280   0.4017   0.7845   1.2061   1.2278   1.4942   1.7392
     2.2058   2.3204   2.4463   2.8061   2.9426   3.0092   3.0634   3.0842
     3.5704   3.7111   3.7482   3.8537   3.9482   3.9677   4.2702   4.6833
     4.7354   5.3565   5.7939   5.9286   6.0309   6.1194   6.3164   6.6721
     7.0047   7.1160

          k =-2.0325 0.0000 0.1485 ( 36456 PWs)   bands (ev):

   -44.1355 -44.1355 -22.2592 -22.2592 -22.1670 -22.1670 -22.0668 -22.0667
    -7.8672  -7.6587  -7.0514  -6.9164  -6.2390  -5.6645  -4.8783  -4.7691
    -4.6090  -3.9395   0.4624   0.9589   1.0382   1.2353   1.2779   1.9442
     2.1696   2.2311   2.3943   2.8432   2.9323   2.9438   3.0123   3.3391
     3.5239   3.7871   3.8136   3.9258   3.9559   4.0066   4.1830   4.6821
     4.7078   4.9495   5.9426   6.0570   6.0687   6.0959   6.5396   6.5408
     6.8304   7.0629

          k =-2.0325 0.0000-0.2971 ( 36460 PWs)   bands (ev):

   -44.1355 -44.1355 -22.2592 -22.2592 -22.1670 -22.1670 -22.0667 -22.0667
    -7.7780  -7.7780  -6.9690  -6.9690  -5.9998  -5.9998  -4.8220  -4.8220
    -4.2327  -4.2327   0.6822   0.6822   1.2394   1.2394   1.4015   1.4015
     2.3015   2.3015   2.6701   2.6701   2.8989   2.8989   3.0783   3.0783
     3.8698   3.8698   3.9260   3.9260   3.9864   3.9864   4.3473   4.3473
     4.6847   4.6847   5.9595   5.9595   6.3101   6.3101   6.4615   6.4615
     6.8759   6.8759

     the Fermi energy is     5.5236 ev

!    total energy              =   -4240.95357652 Ry

     total all-electron energy =   -150287.647271 Ry
     estimated scf accuracy    <          5.4E-13 Ry
     smearing contrib. (-TS)   =       0.00000417 Ry
     internal energy E=F+TS    =   -4240.95358069 Ry

     The total energy is F=E-TS. E is the sum of the following terms:
     one-electron contribution =    -167.21372687 Ry
     hartree contribution      =     117.08154969 Ry
     xc contribution           =    -201.51840712 Ry
     ewald contribution        =    -221.78007094 Ry
     one-center paw contrib.   =   -3767.52292544 Ry

     convergence has been achieved in  18 iterations

     Forces acting on atoms (cartesian axes, Ry/au):

     atom    1 type  1   force =     0.00000000    0.00300839    0.00000000
     atom    2 type  1   force =     0.00000000   -0.00300839    0.00000000
     atom    3 type  2   force =     0.00000000    0.00004649    0.00000000
     atom    4 type  2   force =     0.00000000   -0.00004649    0.00000000
     atom    5 type  2   force =    -0.00000000   -0.00068642   -0.00015958
     atom    6 type  2   force =    -0.00000000    0.00068642    0.00015958
     atom    7 type  2   force =     0.00000000   -0.00068642    0.00015958
     atom    8 type  2   force =     0.00000000    0.00068642   -0.00015958
     atom    9 type  2   force =     0.00000000   -0.00476076   -0.00508074
     atom   10 type  2   force =     0.00000000    0.00476076    0.00508074
     atom   11 type  2   force =     0.00000000   -0.00476076    0.00508074
     atom   12 type  2   force =     0.00000000    0.00476076   -0.00508074

     Total force =     0.014629     Total SCF correction =     0.000002


     Computing stress (Cartesian axis) and pressure

          total   stress  (Ry/bohr**3)                   (kbar)     P=        1.14
   0.00000697   0.00000000   0.00000000            1.03        0.00        0.00
   0.00000000   0.00000566   0.00000000            0.00        0.83        0.00
   0.00000000   0.00000000   0.00001052            0.00        0.00        1.55

 
     init_run     :     21.19s CPU     21.73s WALL (       1 calls)
     electrons    :   1014.19s CPU   1026.01s WALL (       1 calls)
     forces       :      7.06s CPU      7.31s WALL (       1 calls)
     stress       :     46.46s CPU     47.09s WALL (       1 calls)

     Called by init_run:
     wfcinit      :     16.27s CPU     16.47s WALL (       1 calls)
     potinit      :      1.53s CPU      1.58s WALL (       1 calls)
     hinit0       :      1.89s CPU      1.94s WALL (       1 calls)

     Called by electrons:
     c_bands      :    834.75s CPU    838.28s WALL (      19 calls)
     sum_band     :    150.59s CPU    155.06s WALL (      19 calls)
     v_of_rho     :      6.38s CPU      6.68s WALL (      19 calls)
     newd         :     16.13s CPU     19.83s WALL (      19 calls)
     PAW_pot      :      6.51s CPU      6.52s WALL (      19 calls)
     mix_rho      :      0.95s CPU      0.98s WALL (      19 calls)

     Called by c_bands:
     init_us_2    :     12.57s CPU     12.63s WALL (    2583 calls)
     cegterg      :    754.08s CPU    757.06s WALL (    1197 calls)

     Called by *egterg:
     cdiaghg      :     27.21s CPU     27.29s WALL (    8028 calls)
     h_psi        :    583.99s CPU    586.84s WALL (    8154 calls)
     s_psi        :     46.75s CPU     46.81s WALL (    8154 calls)
     g_psi        :      1.99s CPU      2.00s WALL (    6894 calls)

     Called by h_psi:
     h_psi:calbec :     39.87s CPU     39.96s WALL (    8154 calls)
     vloc_psi     :    494.10s CPU    496.69s WALL (    8154 calls)
     add_vuspsi   :     46.64s CPU     46.71s WALL (    8154 calls)

     General routines
     calbec       :     52.91s CPU     53.04s WALL (    9666 calls)
     fft          :      3.99s CPU      4.12s WALL (     271 calls)
     ffts         :      0.09s CPU      0.09s WALL (      38 calls)
     fftw         :    450.45s CPU    452.77s WALL (  420118 calls)
     interpolate  :      0.33s CPU      0.33s WALL (      19 calls)
 
     Parallel routines
 
     PWSCF        :  18m 9.13s CPU  18m22.51s WALL

 
   This run was terminated on:  15:33:11  19Nov2021            

=------------------------------------------------------------------------------=
   JOB DONE.
=------------------------------------------------------------------------------=
