
     Program PWSCF v.6.8 starts on 19Nov2021 at 15:14:30 

     This program is part of the open-source Quantum ESPRESSO suite
     for quantum simulation of materials; please cite
         "P. Giannozzi et al., J. Phys.:Condens. Matter 21 395502 (2009);
         "P. Giannozzi et al., J. Phys.:Condens. Matter 29 465901 (2017);
         "P. Giannozzi et al., J. Chem. Phys. 152 154105 (2020);
          URL http://www.quantum-espresso.org", 
     in publications or presentations arising from this work. More details at
     http://www.quantum-espresso.org/quote

     Parallel version (MPI), running on    10 processors

     MPI processes distributed on     1 nodes
     R & G space division:  proc/nbgrp/npool/nimage =      10
     69589 MiB available memory on the printing compute node when the environment starts
 
     Waiting for input...
     Reading input from standard input

     Current dimensions of program PWSCF are:
     Max number of different atomic species (ntypx) = 10
     Max number of k-points (npk) =  40000
     Max angular momentum in pseudopotentials (lmaxx) =  4
     file Zr.pbe-spn-kjpaw_psl.1.0.0.UPF: wavefunction(s)  4S 4P renormalized
     file Te.pbe-n-kjpaw_psl.1.0.0.UPF: wavefunction(s)  5S 5P renormalized
     Message from routine setup:
     using ibrav=0 with symmetry is DISCOURAGED, use correct ibrav instead

     Subspace diagonalization in iterative solution of the eigenvalue problem:
     a serial algorithm will be used

 
     Parallelization info
     --------------------
     sticks:   dense  smooth     PW     G-vecs:    dense   smooth      PW
     Min         734     293     87               115340    29174    4753
     Max         735     295     88               115345    29176    4760
     Sum        7345    2937    873              1153415   291749   47557
 
     Using Slab Decomposition
 


     bravais-lattice index     =            0
     lattice parameter (alat)  =      15.5510  a.u.
     unit-cell volume          =    3018.5011 (a.u.)^3
     number of atoms/cell      =           12
     number of atomic types    =            2
     number of electrons       =        84.00
     number of Kohn-Sham states=           50
     kinetic-energy cutoff     =      80.0000  Ry
     charge density cutoff     =     800.0000  Ry
     scf convergence threshold =      1.0E-10
     mixing beta               =       0.7000
     number of iterations used =            8  plain     mixing
     Exchange-correlation= SLA  PW   PBX  PBC
                           (   1   4   3   4   0   0   0)

     celldm(1)=  15.551040  celldm(2)=   0.000000  celldm(3)=   0.000000
     celldm(4)=   0.000000  celldm(5)=   0.000000  celldm(6)=   0.000000

     crystal axes: (cart. coord. in units of alat)
               a(1) = (   0.246007  -0.969268   0.000000 )  
               a(2) = (   0.246007   0.969268   0.000000 )  
               a(3) = (   0.000000   0.000000   1.683031 )  

     reciprocal axes: (cart. coord. in units 2 pi/alat)
               b(1) = (  2.032465 -0.515853  0.000000 )  
               b(2) = (  2.032465  0.515853  0.000000 )  
               b(3) = (  0.000000  0.000000  0.594166 )  


     PseudoPot. # 1 for Zr read from file:
     pseudo/Zr.pbe-spn-kjpaw_psl.1.0.0.UPF
     MD5 check sum: 02112c41713a0468aff2bb39ef194e36
     Pseudo is Projector augmented-wave + core cor, Zval = 12.0
     Generated using &quot;atomic&quot; code by A. Dal Corso  v.6.2.2
     Shape of augmentation charge: PSQ
     Using radial grid of 1225 points,  6 beta functions with: 
                l(1) =   0
                l(2) =   0
                l(3) =   1
                l(4) =   1
                l(5) =   2
                l(6) =   2
     Q(r) pseudized with 0 coefficients 


     PseudoPot. # 2 for Te read from file:
     pseudo/Te.pbe-n-kjpaw_psl.1.0.0.UPF
     MD5 check sum: 66247bff2bd9dbf220fbb0bf5ab56e9d
     Pseudo is Projector augmented-wave + core cor, Zval =  6.0
     Generated using &quot;atomic&quot; code by A. Dal Corso  v.6.3
     Shape of augmentation charge: PSQ
     Using radial grid of 1245 points,  6 beta functions with: 
                l(1) =   0
                l(2) =   0
                l(3) =   1
                l(4) =   1
                l(5) =   2
                l(6) =   2
     Q(r) pseudized with 0 coefficients 


     atomic species   valence    mass     pseudopotential
        Zr            12.00    91.22000     Zr( 1.00)
        Te             6.00   127.60000     Te( 1.00)

      8 Sym. Ops., with inversion, found ( 4 have fractional translation)



   Cartesian axes

     site n.     atom                  positions (alat units)
         1           Zr  tau(   1) = (   0.0000000   0.6050941   0.4207578  )
         2           Zr  tau(   2) = (   0.2460067   0.3641740   1.2622733  )
         3           Te  tau(   3) = (   0.2460067   0.3342381   0.4207578  )
         4           Te  tau(   4) = (   0.0000000   0.6350300   1.2622733  )
         5           Te  tau(   5) = (   0.2460067   0.8100595   0.2522229  )
         6           Te  tau(   6) = (   0.0000000   0.1592087   1.4308082  )
         7           Te  tau(   7) = (   0.2460067   0.8100595   0.5892927  )
         8           Te  tau(   8) = (   0.0000000   0.1592087   1.0937384  )
         9           Te  tau(   9) = (   0.0000000   0.4157912   0.7317405  )
        10           Te  tau(  10) = (   0.2460067   0.5534769   0.9512906  )
        11           Te  tau(  11) = (   0.0000000   0.4157912   0.1097751  )
        12           Te  tau(  12) = (   0.2460067   0.5534769   1.5732560  )

     number of k points=    63  Methfessel-Paxton smearing, width (Ry)=  0.0030
                       cart. coord. in units 2pi/alat
        k(    1) = (   0.0000000   0.0000000   0.0000000), wk =   0.0078125
        k(    2) = (   0.0000000   0.0000000   0.1485415), wk =   0.0156250
        k(    3) = (   0.0000000   0.0000000  -0.2970830), wk =   0.0078125
        k(    4) = (   0.2540581   0.0644816   0.0000000), wk =   0.0312500
        k(    5) = (   0.2540581   0.0644816   0.1485415), wk =   0.0625000
        k(    6) = (   0.2540581   0.0644816  -0.2970830), wk =   0.0312500
        k(    7) = (   0.5081162   0.1289633   0.0000000), wk =   0.0312500
        k(    8) = (   0.5081162   0.1289633   0.1485415), wk =   0.0625000
        k(    9) = (   0.5081162   0.1289633  -0.2970830), wk =   0.0312500
        k(   10) = (   0.7621743   0.1934449   0.0000000), wk =   0.0312500
        k(   11) = (   0.7621743   0.1934449   0.1485415), wk =   0.0625000
        k(   12) = (   0.7621743   0.1934449  -0.2970830), wk =   0.0312500
        k(   13) = (  -1.0162324  -0.2579266   0.0000000), wk =   0.0156250
        k(   14) = (  -1.0162324  -0.2579266   0.1485415), wk =   0.0312500
        k(   15) = (  -1.0162324  -0.2579266  -0.2970830), wk =   0.0156250
        k(   16) = (   0.5081162   0.0000000   0.0000000), wk =   0.0156250
        k(   17) = (   0.5081162   0.0000000   0.1485415), wk =   0.0312500
        k(   18) = (   0.5081162   0.0000000  -0.2970830), wk =   0.0156250
        k(   19) = (   0.7621743   0.0644816   0.0000000), wk =   0.0312500
        k(   20) = (   0.7621743   0.0644816   0.1485415), wk =   0.0625000
        k(   21) = (   0.7621743   0.0644816  -0.2970830), wk =   0.0312500
        k(   22) = (   1.0162324   0.1289633   0.0000000), wk =   0.0312500
        k(   23) = (   1.0162324   0.1289633   0.1485415), wk =   0.0625000
        k(   24) = (   1.0162324   0.1289633  -0.2970830), wk =   0.0312500
        k(   25) = (  -0.7621743  -0.3224082   0.0000000), wk =   0.0312500
        k(   26) = (  -0.7621743  -0.3224082   0.1485415), wk =   0.0625000
        k(   27) = (  -0.7621743  -0.3224082  -0.2970830), wk =   0.0312500
        k(   28) = (  -0.5081162  -0.2579266   0.0000000), wk =   0.0312500
        k(   29) = (  -0.5081162  -0.2579266   0.1485415), wk =   0.0625000
        k(   30) = (  -0.5081162  -0.2579266  -0.2970830), wk =   0.0312500
        k(   31) = (  -0.2540581  -0.1934449   0.0000000), wk =   0.0312500
        k(   32) = (  -0.2540581  -0.1934449   0.1485415), wk =   0.0625000
        k(   33) = (  -0.2540581  -0.1934449  -0.2970830), wk =   0.0312500
        k(   34) = (   0.0000000  -0.1289633   0.0000000), wk =   0.0156250
        k(   35) = (   0.0000000  -0.1289633   0.1485415), wk =   0.0312500
        k(   36) = (   0.0000000  -0.1289633  -0.2970830), wk =   0.0156250
        k(   37) = (   1.0162324   0.0000000   0.0000000), wk =   0.0156250
        k(   38) = (   1.0162324   0.0000000   0.1485415), wk =   0.0312500
        k(   39) = (   1.0162324   0.0000000  -0.2970830), wk =   0.0156250
        k(   40) = (   1.2702905   0.0644816   0.0000000), wk =   0.0312500
        k(   41) = (   1.2702905   0.0644816   0.1485415), wk =   0.0625000
        k(   42) = (   1.2702905   0.0644816  -0.2970830), wk =   0.0312500
        k(   43) = (  -0.5081162  -0.3868899   0.0000000), wk =   0.0312500
        k(   44) = (  -0.5081162  -0.3868899   0.1485415), wk =   0.0625000
        k(   45) = (  -0.5081162  -0.3868899  -0.2970830), wk =   0.0312500
        k(   46) = (  -0.2540581  -0.3224082   0.0000000), wk =   0.0312500
        k(   47) = (  -0.2540581  -0.3224082   0.1485415), wk =   0.0625000
        k(   48) = (  -0.2540581  -0.3224082  -0.2970830), wk =   0.0312500
        k(   49) = (   0.0000000  -0.2579266   0.0000000), wk =   0.0156250
        k(   50) = (   0.0000000  -0.2579266   0.1485415), wk =   0.0312500
        k(   51) = (   0.0000000  -0.2579266  -0.2970830), wk =   0.0156250
        k(   52) = (   1.5243485   0.0000000   0.0000000), wk =   0.0156250
        k(   53) = (   1.5243485   0.0000000   0.1485415), wk =   0.0312500
        k(   54) = (   1.5243485   0.0000000  -0.2970830), wk =   0.0156250
        k(   55) = (  -0.2540581  -0.4513715   0.0000000), wk =   0.0312500
        k(   56) = (  -0.2540581  -0.4513715   0.1485415), wk =   0.0625000
        k(   57) = (  -0.2540581  -0.4513715  -0.2970830), wk =   0.0312500
        k(   58) = (   0.0000000  -0.3868899   0.0000000), wk =   0.0156250
        k(   59) = (   0.0000000  -0.3868899   0.1485415), wk =   0.0312500
        k(   60) = (   0.0000000  -0.3868899  -0.2970830), wk =   0.0156250
        k(   61) = (  -2.0324647   0.0000000   0.0000000), wk =   0.0078125
        k(   62) = (  -2.0324647   0.0000000   0.1485415), wk =   0.0156250
        k(   63) = (  -2.0324647   0.0000000  -0.2970830), wk =   0.0078125

     Dense  grid:  1153415 G-vectors     FFT dimensions: ( 144, 144, 240)

     Smooth grid:   291749 G-vectors     FFT dimensions: (  90,  90, 150)

     Estimated max dynamical RAM per process >     657.19 MB

     Estimated total dynamical RAM >       6.42 GB

     Initial potential from superposition of free atoms

     starting charge   83.99353, renormalised to   84.00000
     Starting wfcs are   66 randomized atomic wfcs
     Checking if some PAW data can be deallocated... 

     total cpu time spent up to now is       18.8 secs

     Self-consistent Calculation

     iteration #  1     ecut=    80.00 Ry     beta= 0.70
     Davidson diagonalization with overlap
     ethr =  1.00E-02,  avg # of iterations =  2.1

     Threshold (ethr) on eigenvalues was too large:
     Diagonalizing with lowered threshold

     Davidson diagonalization with overlap
     ethr =  4.19E-04,  avg # of iterations =  4.0

     total cpu time spent up to now is      102.7 secs

     total energy              =   -4240.73138479 Ry
     estimated scf accuracy    <       0.43540287 Ry

     iteration #  2     ecut=    80.00 Ry     beta= 0.70
     Davidson diagonalization with overlap
     ethr =  5.18E-04,  avg # of iterations =  7.8

     total cpu time spent up to now is      164.9 secs

     total energy              =   -4240.63790404 Ry
     estimated scf accuracy    <       2.05037954 Ry

     iteration #  3     ecut=    80.00 Ry     beta= 0.70
     Davidson diagonalization with overlap
     ethr =  5.18E-04,  avg # of iterations =  5.3

     total cpu time spent up to now is      215.9 secs

     total energy              =   -4240.93846772 Ry
     estimated scf accuracy    <       0.00972947 Ry

     iteration #  4     ecut=    80.00 Ry     beta= 0.70
     Davidson diagonalization with overlap
     c_bands:  1 eigenvalues not converged
     c_bands:  1 eigenvalues not converged
     c_bands:  2 eigenvalues not converged
     c_bands:  1 eigenvalues not converged
     c_bands:  4 eigenvalues not converged
     c_bands:  1 eigenvalues not converged
     c_bands:  2 eigenvalues not converged
     c_bands:  2 eigenvalues not converged
     c_bands:  2 eigenvalues not converged
     c_bands:  2 eigenvalues not converged
     c_bands:  1 eigenvalues not converged
     c_bands:  2 eigenvalues not converged
     c_bands:  1 eigenvalues not converged
     c_bands:  1 eigenvalues not converged
     c_bands:  1 eigenvalues not converged
     c_bands:  1 eigenvalues not converged
     c_bands:  3 eigenvalues not converged
     c_bands:  1 eigenvalues not converged
     c_bands:  1 eigenvalues not converged
     c_bands:  1 eigenvalues not converged
     ethr =  1.16E-05,  avg # of iterations = 17.7

     total cpu time spent up to now is      314.7 secs

     total energy              =   -4240.95039067 Ry
     estimated scf accuracy    <       0.05894675 Ry

     iteration #  5     ecut=    80.00 Ry     beta= 0.70
     Davidson diagonalization with overlap
     ethr =  1.16E-05,  avg # of iterations =  7.2

     total cpu time spent up to now is      367.0 secs

     total energy              =   -4240.95230946 Ry
     estimated scf accuracy    <       0.01088488 Ry

     iteration #  6     ecut=    80.00 Ry     beta= 0.70
     Davidson diagonalization with overlap
     ethr =  1.16E-05,  avg # of iterations =  3.5

     total cpu time spent up to now is      408.1 secs

     WARNING: integrated charge=    83.99988726, expected=    84.00000000

     total energy              =   -4240.95323911 Ry
     estimated scf accuracy    <       0.00131182 Ry

     iteration #  7     ecut=    80.00 Ry     beta= 0.70
     Davidson diagonalization with overlap
     c_bands:  2 eigenvalues not converged
     ethr =  1.56E-06,  avg # of iterations = 11.8

     total cpu time spent up to now is      477.6 secs

     WARNING: integrated charge=    83.99973639, expected=    84.00000000

     total energy              =   -4240.95401025 Ry
     estimated scf accuracy    <       0.00148329 Ry

     iteration #  8     ecut=    80.00 Ry     beta= 0.70
     Davidson diagonalization with overlap
     ethr =  1.56E-06,  avg # of iterations =  2.1

     total cpu time spent up to now is      514.4 secs

     WARNING: integrated charge=    83.99974091, expected=    84.00000000

     total energy              =   -4240.95396794 Ry
     estimated scf accuracy    <       0.00022060 Ry

     iteration #  9     ecut=    80.00 Ry     beta= 0.70
     Davidson diagonalization with overlap
     ethr =  2.63E-07,  avg # of iterations =  6.4

     total cpu time spent up to now is      566.1 secs

     WARNING: integrated charge=    83.99979756, expected=    84.00000000

     total energy              =   -4240.95397032 Ry
     estimated scf accuracy    <       0.00003076 Ry

     iteration # 10     ecut=    80.00 Ry     beta= 0.70
     Davidson diagonalization with overlap
     ethr =  3.66E-08,  avg # of iterations =  2.8

     total cpu time spent up to now is      604.7 secs

     WARNING: integrated charge=    83.99982428, expected=    84.00000000

     total energy              =   -4240.95398493 Ry
     estimated scf accuracy    <       0.00000600 Ry

     iteration # 11     ecut=    80.00 Ry     beta= 0.70
     Davidson diagonalization with overlap
     ethr =  7.15E-09,  avg # of iterations =  6.2

     total cpu time spent up to now is      656.7 secs

     WARNING: integrated charge=    83.99983320, expected=    84.00000000

     total energy              =   -4240.95399461 Ry
     estimated scf accuracy    <       0.00000100 Ry

     iteration # 12     ecut=    80.00 Ry     beta= 0.70
     Davidson diagonalization with overlap
     ethr =  1.19E-09,  avg # of iterations =  3.3

     total cpu time spent up to now is      696.0 secs

     WARNING: integrated charge=    83.99983990, expected=    84.00000000

     total energy              =   -4240.95399189 Ry
     estimated scf accuracy    <       0.00000009 Ry

     iteration # 13     ecut=    80.00 Ry     beta= 0.70
     Davidson diagonalization with overlap
     ethr =  1.07E-10,  avg # of iterations =  8.2

     total cpu time spent up to now is      757.5 secs

     WARNING: integrated charge=    83.99983949, expected=    84.00000000

     total energy              =   -4240.95399116 Ry
     estimated scf accuracy    <       0.00000007 Ry

     iteration # 14     ecut=    80.00 Ry     beta= 0.70
     Davidson diagonalization with overlap
     ethr =  7.98E-11,  avg # of iterations =  1.7

     total cpu time spent up to now is      793.7 secs

     WARNING: integrated charge=    83.99983826, expected=    84.00000000

     total energy              =   -4240.95399154 Ry
     estimated scf accuracy    <       0.00000002 Ry

     iteration # 15     ecut=    80.00 Ry     beta= 0.70
     Davidson diagonalization with overlap
     ethr =  2.89E-11,  avg # of iterations =  5.8

     total cpu time spent up to now is      841.3 secs

     WARNING: integrated charge=    83.99983856, expected=    84.00000000

     total energy              =   -4240.95399210 Ry
     estimated scf accuracy    <          2.5E-09 Ry

     iteration # 16     ecut=    80.00 Ry     beta= 0.70
     Davidson diagonalization with overlap
     ethr =  2.98E-12,  avg # of iterations =  4.5

     total cpu time spent up to now is      884.0 secs

     WARNING: integrated charge=    83.99983856, expected=    84.00000000

     total energy              =   -4240.95399199 Ry
     estimated scf accuracy    <          8.5E-10 Ry

     iteration # 17     ecut=    80.00 Ry     beta= 0.70
     Davidson diagonalization with overlap
     ethr =  1.01E-12,  avg # of iterations =  5.3

     total cpu time spent up to now is      927.2 secs

     End of self-consistent calculation

          k = 0.0000 0.0000 0.0000 ( 36359 PWs)   bands (ev):

   -44.1349 -44.1349 -22.2596 -22.2596 -22.1670 -22.1670 -22.0657 -22.0656
    -7.8971  -7.5548  -7.1294  -6.8751  -6.2834  -5.4120  -4.9056  -4.8335
    -4.7826  -3.8286   0.3278   0.7515   0.7774   1.1248   1.4347   1.5323
     2.2284   2.3235   2.4958   2.7478   2.9386   3.0092   3.2663   3.3915
     3.7150   3.8136   3.9864   4.0719   4.2607   4.3382   4.3689   4.6821
     4.8269   5.4765   5.6378   5.8471   5.8586   5.9362   6.1249   6.8229
     6.9973   7.2722

          k = 0.0000 0.0000 0.1485 ( 36415 PWs)   bands (ev):

   -44.1349 -44.1349 -22.2596 -22.2596 -22.1670 -22.1670 -22.0657 -22.0656
    -7.8636  -7.6363  -7.0558  -6.8932  -6.2083  -5.6567  -4.8318  -4.7910
    -4.6325  -3.9436   0.3957   0.8118   0.9017   0.9996   1.0829   1.9055
     2.0540   2.2545   2.4309   2.8018   2.9236   3.1103   3.3986   3.4035
     3.7146   3.8748   3.9660   4.0755   4.1968   4.3600   4.3856   4.6829
     4.7622   4.9765   5.8156   5.9380   5.9397   6.0453   6.4827   6.6329
     6.8176   7.1848

          k = 0.0000 0.0000-0.2971 ( 36410 PWs)   bands (ev):

   -44.1349 -44.1349 -22.2596 -22.2596 -22.1670 -22.1670 -22.0657 -22.0657
    -7.7684  -7.7684  -6.9525  -6.9525  -5.9852  -5.9852  -4.8111  -4.8111
    -4.2445  -4.2445   0.6137   0.6137   0.9320   0.9320   1.3548   1.3548
     2.3284   2.3284   2.6302   2.6302   2.8771   2.8771   3.5136   3.5136
     3.8988   3.8988   4.0322   4.0322   4.3461   4.3461   4.3921   4.3921
     4.6984   4.6984   5.9260   5.9260   6.2240   6.2240   6.4343   6.4343
     6.9622   6.9622

          k = 0.2541 0.0645 0.0000 ( 36396 PWs)   bands (ev):

   -44.1345 -44.1345 -22.2576 -22.2576 -22.1767 -22.1767 -22.0646 -22.0645
    -7.7782  -7.4406  -7.0594  -6.8272  -6.2219  -5.3663  -4.9260  -4.7902
    -4.7386  -3.9846   0.4134   0.8759   0.9057   1.2320   1.2410   1.4235
     1.7515   1.8419   1.9581   2.5703   2.5954   3.1778   3.2964   3.7253
     3.7522   3.7581   3.8208   3.8331   4.0322   4.2478   4.2983   4.3154
     4.4917   4.5708   5.8321   5.9783   6.2109   6.5817   6.5940   6.7306
     7.0156   7.1828

          k = 0.2541 0.0645 0.1485 ( 36423 PWs)   bands (ev):

   -44.1345 -44.1345 -22.2576 -22.2576 -22.1767 -22.1767 -22.0646 -22.0645
    -7.7452  -7.5217  -6.9906  -6.8435  -6.1451  -5.6034  -4.8048  -4.7488
    -4.6571  -4.0762   0.4694   0.9263   0.9376   0.9587   1.1905   1.4087
     1.7658   2.0364   2.2211   2.5564   2.5798   2.9520   3.3500   3.3621
     3.5565   3.7822   3.9357   3.9593   4.0336   4.1606   4.3378   4.3508
     4.6841   4.8366   5.8482   5.9412   6.1645   6.2600   6.4048   6.7476
     7.2209   7.2928

          k = 0.2541 0.0645-0.2971 ( 36436 PWs)   bands (ev):

   -44.1345 -44.1345 -22.2576 -22.2576 -22.1767 -22.1767 -22.0645 -22.0645
    -7.6518  -7.6518  -6.8969  -6.8969  -5.9226  -5.9226  -4.7738  -4.7738
    -4.3248  -4.3248   0.6463   0.6463   1.0308   1.0308   1.1585   1.1585
     2.0756   2.0756   2.4771   2.4771   2.6678   2.6678   3.2005   3.2005
     3.6376   3.6376   3.9494   3.9494   4.1166   4.1166   4.3593   4.3593
     5.0167   5.0167   5.7830   5.7830   6.1441   6.1441   6.4470   6.4470
     7.4014   7.4014

          k = 0.5081 0.1290 0.0000 ( 36499 PWs)   bands (ev):

   -44.1336 -44.1336 -22.2529 -22.2529 -22.2000 -22.2000 -22.0618 -22.0617
    -7.4361  -7.1079  -6.8939  -6.7030  -6.0351  -5.2614  -5.0509  -4.6779
    -4.6298  -4.4493   0.3632   0.5967   0.6385   1.1956   1.2278   1.3826
     1.6463   1.6978   1.9444   2.1031   2.1633   2.2668   2.4451   3.3853
     3.4743   3.5092   3.5516   3.5886   3.7725   3.8688   3.9363   4.1832
     4.4003   5.0342   5.6147   6.0677   6.1263   6.5917   6.6115   6.9623
     7.4496   7.5637

          k = 0.5081 0.1290 0.1485 ( 36476 PWs)   bands (ev):

   -44.1336 -44.1336 -22.2529 -22.2529 -22.2000 -22.2000 -22.0618 -22.0617
    -7.4052  -7.1929  -6.8306  -6.7158  -5.9585  -5.4745  -4.8856  -4.6599
    -4.6435  -4.4763   0.3783   0.6159   0.7566   0.9906   1.2517   1.3498
     1.4259   1.5634   2.0166   2.0957   2.3520   2.4537   2.8098   3.4050
     3.4232   3.4730   3.5227   3.5977   3.7179   3.7531   3.8506   4.2343
     4.3121   4.4995   6.1538   6.1908   6.3374   6.5930   6.6557   6.8276
     7.2894   7.5125

          k = 0.5081 0.1290-0.2971 ( 36466 PWs)   bands (ev):

   -44.1336 -44.1336 -22.2529 -22.2529 -22.2000 -22.2000 -22.0618 -22.0618
    -7.3175  -7.3175  -6.7568  -6.7568  -5.7516  -5.7516  -4.7383  -4.7383
    -4.5560  -4.5560   0.4905   0.4905   1.0184   1.0184   1.0796   1.0796
     1.4250   1.4250   2.0575   2.0575   2.7003   2.7003   3.1656   3.1656
     3.4010   3.4010   3.5570   3.5570   3.7177   3.7177   3.8420   3.8420
     4.3147   4.3147   6.3956   6.3956   6.5616   6.5616   6.8410   6.8410
     7.1527   7.1527

          k = 0.7622 0.1934 0.0000 ( 36521 PWs)   bands (ev):

   -44.1327 -44.1327 -22.2481 -22.2481 -22.2233 -22.2233 -22.0590 -22.0590
    -6.9575  -6.7416  -6.5921  -6.5090  -5.7681  -5.4039  -5.2046  -5.1155
    -4.5533  -4.5168   0.0032   0.0162   0.4723   0.9963   1.0181   1.2738
     1.4831   1.6031   1.9757   2.0992   2.2426   2.3393   2.4210   2.7928
     2.9038   3.2652   3.3428   3.4592   3.5772   3.6728   3.7151   3.8057
     3.8274   4.5656   5.9389   6.3444   6.4027   6.8559   6.8702   6.9534
     7.3195   7.6241

          k = 0.7622 0.1934 0.1485 ( 36503 PWs)   bands (ev):

   -44.1327 -44.1327 -22.2481 -22.2481 -22.2233 -22.2233 -22.0590 -22.0590
    -6.9342  -6.7883  -6.5698  -6.5168  -5.7136  -5.4584  -5.1905  -5.1281
    -4.5448  -4.5196  -0.0036   0.1941   0.3500   0.8898   0.9967   1.2326
     1.4954   1.6213   1.9212   2.0565   2.1275   2.6175   2.6899   2.8586
     2.8932   3.0788   3.2712   3.3884   3.5260   3.6223   3.6637   3.9329
     3.9749   4.5155   5.7218   6.3604   6.6645   6.7687   6.9379   6.9880
     7.0971   7.5961

          k = 0.7622 0.1934-0.2971 ( 36522 PWs)   bands (ev):

   -44.1327 -44.1327 -22.2481 -22.2481 -22.2233 -22.2233 -22.0590 -22.0590
    -6.8704  -6.8704  -6.5385  -6.5385  -5.5858  -5.5858  -5.1588  -5.1588
    -4.5295  -4.5295   0.1314   0.1314   0.5343   0.5343   1.0828   1.0828
     1.5654   1.5654   2.0138   2.0138   2.3848   2.3848   2.8226   2.8226
     2.9863   2.9863   3.3147   3.3147   3.5963   3.5963   3.8966   3.8966
     4.0833   4.0833   6.1772   6.1772   6.4600   6.4600   6.9933   6.9933
     7.4494   7.4494

          k =-1.0162-0.2579 0.0000 ( 36506 PWs)   bands (ev):

   -44.1324 -44.1324 -22.2460 -22.2460 -22.2330 -22.2330 -22.0578 -22.0578
    -6.7191  -6.6989  -6.0260  -6.0149  -5.9773  -5.9704  -5.3132  -5.3126
    -4.4961  -4.4700  -0.0350  -0.0129   0.2840   0.3056   1.0117   1.0208
     1.4680   1.6683   2.2317   2.3917   2.4026   2.4179   2.8057   2.8092
     2.8157   2.8342   3.2075   3.2585   3.3195   3.4045   3.4848   3.6960
     3.8070   4.0990   6.5836   6.5849   6.6060   6.6616   7.0404   7.1376
     7.1431   7.1737

          k =-1.0162-0.2579 0.1485 ( 36506 PWs)   bands (ev):

   -44.1324 -44.1324 -22.2460 -22.2460 -22.2330 -22.2330 -22.0578 -22.0578
    -6.7152  -6.7008  -6.0484  -6.0406  -5.9534  -5.9486  -5.3104  -5.3100
    -4.4955  -4.4770  -0.1323  -0.1255   0.5004   0.5077   1.0089   1.0247
     1.4635   1.5947   2.0024   2.1068   2.3713   2.3981   2.6943   2.6975
     2.9382   3.0380   3.0951   3.1936   3.5553   3.5713   3.6395   3.7522
     4.0293   4.1546   6.0567   6.0740   6.5012   6.5772   7.1260   7.1464
     7.3430   7.3969

          k =-1.0162-0.2579-0.2971 ( 36528 PWs)   bands (ev):

   -44.1324 -44.1324 -22.2460 -22.2460 -22.2330 -22.2330 -22.0578 -22.0578
    -6.7070  -6.7070  -6.0602  -6.0602  -5.9365  -5.9365  -5.3074  -5.3074
    -4.4895  -4.4895  -0.1922  -0.1922   0.7423   0.7423   0.9563   0.9563
     1.5233   1.5233   1.7861   1.7861   2.3714   2.3714   2.7678   2.7678
     2.8915   2.8915   3.1665   3.1665   3.6350   3.6350   3.8050   3.8050
     4.3567   4.3567   5.6255   5.6255   6.4526   6.4526   7.1571   7.1571
     7.4532   7.4532

          k = 0.5081 0.0000 0.0000 ( 36503 PWs)   bands (ev):

   -44.1336 -44.1336 -22.2529 -22.2529 -22.2000 -22.2000 -22.0618 -22.0617
    -7.4398  -7.1085  -6.8948  -6.6993  -6.0316  -5.2614  -5.0481  -4.6722
    -4.6367  -4.4489   0.3687   0.6045   0.6248   1.1909   1.2209   1.3510
     1.6443   1.6944   1.9305   2.1092   2.1703   2.2411   2.4447   3.3762
     3.4970   3.5156   3.5767   3.5772   3.7799   3.9206   3.9237   4.2205
     4.4024   5.0295   5.6205   6.0448   6.1622   6.5535   6.5599   6.9982
     7.4631   7.5796

          k = 0.5081 0.0000 0.1485 ( 36453 PWs)   bands (ev):

   -44.1336 -44.1336 -22.2529 -22.2529 -22.2000 -22.2000 -22.0618 -22.0617
    -7.4088  -7.1949  -6.8295  -6.7122  -5.9560  -5.4743  -4.8812  -4.6615
    -4.6430  -4.4775   0.3808   0.6105   0.7574   0.9941   1.2514   1.3401
     1.3948   1.5423   2.0141   2.1058   2.3859   2.3967   2.8066   3.4001
     3.4669   3.4858   3.4880   3.6071   3.7097   3.8244   3.8369   4.2759
     4.3226   4.4911   6.1464   6.2005   6.3561   6.5453   6.6187   6.8598
     7.3092   7.5219

          k = 0.5081 0.0000-0.2971 ( 36452 PWs)   bands (ev):

   -44.1336 -44.1336 -22.2529 -22.2529 -22.2000 -22.2000 -22.0618 -22.0618
    -7.3206  -7.3206  -6.7538  -6.7538  -5.7506  -5.7506  -4.7344  -4.7344
    -4.5589  -4.5589   0.4883   0.4883   1.0195   1.0195   1.0878   1.0878
     1.3875   1.3875   2.0600   2.0600   2.6911   2.6911   3.1575   3.1575
     3.4050   3.4050   3.5708   3.5708   3.7461   3.7461   3.8400   3.8400
     4.3349   4.3349   6.4112   6.4112   6.5255   6.5255   6.8587   6.8587
     7.1537   7.1537

          k = 0.7622 0.0645 0.0000 ( 36505 PWs)   bands (ev):

   -44.1327 -44.1327 -22.2481 -22.2481 -22.2233 -22.2233 -22.0590 -22.0590
    -6.9657  -6.7392  -6.5935  -6.5017  -5.7681  -5.4009  -5.2053  -5.1147
    -4.5436  -4.5274   0.0124   0.0131   0.4865   1.0067   1.0280   1.2878
     1.4467   1.5654   1.9446   2.1187   2.2614   2.3200   2.3582   2.7678
     2.8925   3.3134   3.3619   3.5001   3.5846   3.6364   3.7014   3.8286
     3.8427   4.5977   5.9364   6.3325   6.4025   6.8422   6.9123   6.9132
     7.3345   7.6424

          k = 0.7622 0.0645 0.1485 ( 36509 PWs)   bands (ev):

   -44.1327 -44.1327 -22.2481 -22.2481 -22.2233 -22.2233 -22.0590 -22.0590
    -6.9418  -6.7903  -6.5667  -6.5095  -5.7140  -5.4573  -5.1897  -5.1272
    -4.5381  -4.5271   0.0027   0.1931   0.3590   0.8838   1.0201   1.2476
     1.4631   1.6204   1.9516   1.9906   2.0550   2.6301   2.6796   2.8487
     2.8732   3.0823   3.3235   3.3951   3.5514   3.6104   3.6535   3.9621
     3.9930   4.5118   5.7469   6.3390   6.6769   6.7695   6.9420   6.9965
     7.0706   7.6157

          k = 0.7622 0.0645-0.2971 ( 36472 PWs)   bands (ev):

   -44.1327 -44.1327 -22.2481 -22.2481 -22.2233 -22.2233 -22.0590 -22.0590
    -6.8763  -6.8763  -6.5319  -6.5319  -5.5863  -5.5863  -5.1575  -5.1575
    -4.5298  -4.5298   0.1392   0.1392   0.5272   0.5272   1.1050   1.1050
     1.5592   1.5592   1.9627   1.9627   2.3648   2.3648   2.8249   2.8249
     2.9711   2.9711   3.3725   3.3725   3.5935   3.5935   3.8836   3.8836
     4.1000   4.1000   6.2030   6.2030   6.4604   6.4604   6.9614   6.9614
     7.4770   7.4770

          k = 1.0162 0.1290 0.0000 ( 36514 PWs)   bands (ev):

   -44.1324 -44.1324 -22.2460 -22.2460 -22.2330 -22.2330 -22.0578 -22.0578
    -6.7191  -6.6989  -6.0258  -6.0152  -5.9773  -5.9704  -5.3132  -5.3126
    -4.4961  -4.4700  -0.0408  -0.0070   0.2802   0.3096   1.0050   1.0286
     1.4741   1.6589   2.2302   2.3932   2.3981   2.4168   2.7998   2.8024
     2.8102   2.8701   3.2257   3.2408   3.2994   3.3924   3.5287   3.6755
     3.7923   4.1131   6.5719   6.5797   6.6181   6.6686   7.0602   7.1386
     7.1452   7.1594

          k = 1.0162 0.1290 0.1485 ( 36524 PWs)   bands (ev):

   -44.1324 -44.1324 -22.2460 -22.2460 -22.2330 -22.2330 -22.0578 -22.0578
    -6.7152  -6.7008  -6.0483  -6.0407  -5.9534  -5.9486  -5.3104  -5.3100
    -4.4955  -4.4770  -0.1345  -0.1236   0.5018   0.5069   1.0104   1.0235
     1.4690   1.5893   2.0144   2.0899   2.3716   2.3935   2.6554   2.7430
     2.9488   3.0496   3.0871   3.1841   3.5267   3.6049   3.6421   3.7441
     4.0084   4.1741   6.0496   6.0848   6.4979   6.5799   7.1310   7.1457
     7.3511   7.3896

          k = 1.0162 0.1290-0.2971 ( 36516 PWs)   bands (ev):

   -44.1324 -44.1324 -22.2460 -22.2460 -22.2330 -22.2330 -22.0578 -22.0578
    -6.7070  -6.7070  -6.0602  -6.0602  -5.9365  -5.9365  -5.3074  -5.3074
    -4.4895  -4.4895  -0.1923  -0.1923   0.7427   0.7427   0.9562   0.9562
     1.5243   1.5243   1.7869   1.7869   2.3629   2.3629   2.7516   2.7516
     2.9324   2.9324   3.1476   3.1476   3.6380   3.6380   3.8022   3.8022
     4.3572   4.3572   5.6279   5.6279   6.4520   6.4520   7.1585   7.1585
     7.4541   7.4541

          k =-0.7622-0.3224 0.0000 ( 36511 PWs)   bands (ev):

   -44.1327 -44.1327 -22.2481 -22.2481 -22.2233 -22.2233 -22.0590 -22.0590
    -6.9450  -6.7459  -6.5901  -6.5192  -5.7682  -5.4082  -5.2038  -5.1166
    -4.5609  -4.5080  -0.0105   0.0217   0.4524   0.9637   1.0341   1.2566
     1.5040   1.6667   2.0393   2.0753   2.2548   2.3649   2.4501   2.8291
     2.9162   3.2103   3.3274   3.4556   3.5570   3.6431   3.6680   3.7871
     3.8888   4.5111   5.9426   6.3388   6.4370   6.7737   6.9133   7.0196
     7.2884   7.5999

          k =-0.7622-0.3224 0.1485 ( 36492 PWs)   bands (ev):

   -44.1327 -44.1327 -22.2481 -22.2481 -22.2233 -22.2233 -22.0590 -22.0590
    -6.9225  -6.7860  -6.5744  -6.5272  -5.7131  -5.4599  -5.1916  -5.1295
    -4.5501  -4.5134  -0.0129   0.1969   0.3365   0.8922   0.9783   1.2124
     1.5299   1.6268   1.9036   2.1574   2.2070   2.6052   2.6859   2.8766
     2.9100   3.0962   3.2113   3.3713   3.4751   3.6015   3.7112   3.8805
     3.9615   4.5192   5.6885   6.3948   6.6368   6.7657   6.9064   7.0325
     7.1253   7.5568

          k =-0.7622-0.3224-0.2971 ( 36508 PWs)   bands (ev):

   -44.1327 -44.1327 -22.2481 -22.2481 -22.2233 -22.2233 -22.0590 -22.0590
    -6.8617  -6.8617  -6.5482  -6.5482  -5.5851  -5.5851  -5.1607  -5.1607
    -4.5292  -4.5292   0.1207   0.1207   0.5437   0.5437   1.0566   1.0566
     1.5738   1.5738   2.0719   2.0719   2.4315   2.4315   2.8201   2.8201
     3.0087   3.0087   3.2327   3.2327   3.5944   3.5944   3.8952   3.8952
     4.0759   4.0759   6.1438   6.1438   6.4582   6.4582   7.0457   7.0457
     7.4020   7.4020

          k =-0.5081-0.2579 0.0000 ( 36480 PWs)   bands (ev):

   -44.1336 -44.1336 -22.2529 -22.2529 -22.2000 -22.2000 -22.0618 -22.0617
    -7.4269  -7.1063  -6.8924  -6.7113  -6.0436  -5.2613  -5.0577  -4.6865
    -4.6183  -4.4505   0.3505   0.5949   0.6501   1.2065   1.2563   1.4585
     1.6487   1.7153   1.9793   2.0879   2.1566   2.3111   2.4435   3.3928
     3.4058   3.4768   3.5518   3.5931   3.7512   3.7630   3.9580   4.1048
     4.3913   5.0435   5.6029   6.0334   6.1317   6.6896   6.7332   6.8771
     7.4053   7.5280

          k =-0.5081-0.2579 0.1485 ( 36485 PWs)   bands (ev):

   -44.1336 -44.1336 -22.2529 -22.2529 -22.2000 -22.2000 -22.0618 -22.0617
    -7.3964  -7.1880  -6.8340  -6.7242  -5.9647  -5.4750  -4.8957  -4.6565
    -4.6445  -4.4735   0.3724   0.6284   0.7531   0.9825   1.2618   1.3645
     1.5073   1.6239   2.0140   2.0784   2.3367   2.5179   2.8173   3.3304
     3.4244   3.4668   3.5489   3.5802   3.6155   3.7412   3.8548   4.1526
     4.2746   4.5149   6.1422   6.1916   6.2986   6.6947   6.7527   6.7633
     7.2350   7.4925

          k =-0.5081-0.2579-0.2971 ( 36478 PWs)   bands (ev):

   -44.1336 -44.1336 -22.2529 -22.2529 -22.2000 -22.2000 -22.0618 -22.0618
    -7.3099  -7.3099  -6.7643  -6.7643  -5.7540  -5.7540  -4.7473  -4.7473
    -4.5497  -4.5497   0.4956   0.4956   1.0147   1.0147   1.0658   1.0658
     1.5191   1.5191   2.0470   2.0470   2.7272   2.7272   3.1733   3.1733
     3.3845   3.3845   3.5013   3.5013   3.6886   3.6886   3.8432   3.8432
     4.2668   4.2668   6.3596   6.3596   6.6385   6.6385   6.8027   6.8027
     7.1577   7.1577

          k =-0.2541-0.1934 0.0000 ( 36410 PWs)   bands (ev):

   -44.1345 -44.1345 -22.2577 -22.2576 -22.1767 -22.1767 -22.0646 -22.0645
    -7.7719  -7.4395  -7.0540  -6.8332  -6.2346  -5.3683  -4.9345  -4.7976
    -4.7265  -3.9856   0.4387   0.8828   0.9748   1.2280   1.2695   1.4581
     1.7758   1.8661   1.9596   2.5379   2.5855   3.2403   3.2690   3.6643
     3.6967   3.7288   3.7883   3.8632   3.8928   4.1953   4.2745   4.2961
     4.3825   4.6003   5.8876   6.0085   6.2780   6.5813   6.6367   6.7499
     6.9963   7.1019

          k =-0.2541-0.1934 0.1485 ( 36427 PWs)   bands (ev):

   -44.1345 -44.1345 -22.2576 -22.2576 -22.1767 -22.1767 -22.0646 -22.0645
    -7.7392  -7.5184  -6.9892  -6.8491  -6.1553  -5.6058  -4.8228  -4.7419
    -4.6509  -4.0762   0.4930   0.9275   0.9545   1.0375   1.2243   1.4234
     1.7730   2.0395   2.2502   2.5351   2.5669   2.9372   3.3716   3.4029
     3.5664   3.6803   3.7980   3.9003   3.9869   4.1363   4.2939   4.3030
     4.6756   4.8358   5.8385   5.9648   6.1598   6.3301   6.4726   6.7487
     7.1809   7.2821

          k =-0.2541-0.1934-0.2971 ( 36422 PWs)   bands (ev):

   -44.1345 -44.1345 -22.2576 -22.2576 -22.1767 -22.1767 -22.0645 -22.0645
    -7.6466  -7.6466  -6.9004  -6.9004  -5.9281  -5.9281  -4.7784  -4.7784
    -4.3227  -4.3227   0.6653   0.6653   1.0864   1.0864   1.1704   1.1704
     2.0783   2.0783   2.4722   2.4722   2.6673   2.6673   3.2172   3.2172
     3.6219   3.6219   3.8241   3.8241   4.0956   4.0956   4.3062   4.3062
     5.0280   5.0280   5.7470   5.7470   6.1608   6.1608   6.5165   6.5165
     7.3847   7.3848

          k = 0.0000-0.1290 0.0000 ( 36417 PWs)   bands (ev):

   -44.1349 -44.1349 -22.2596 -22.2596 -22.1670 -22.1670 -22.0657 -22.0656
    -7.8938  -7.5542  -7.1255  -6.8783  -6.2915  -5.4136  -4.9111  -4.8390
    -4.7738  -3.8291   0.3464   0.7557   0.8184   1.1344   1.4459   1.5609
     2.2291   2.3234   2.4950   2.7548   2.9397   3.0136   3.3044   3.3829
     3.6667   3.8026   3.8659   4.0128   4.2608   4.2839   4.3210   4.6816
     4.8156   5.4443   5.6603   5.8662   5.8679   5.9853   6.1733   6.8214
     6.9974   7.2344

          k = 0.0000-0.1290 0.1485 ( 36419 PWs)   bands (ev):

   -44.1349 -44.1349 -22.2596 -22.2596 -22.1670 -22.1670 -22.0657 -22.0656
    -7.8604  -7.6345  -7.0542  -6.8960  -6.2150  -5.6587  -4.8420  -4.7862
    -4.6299  -3.9437   0.4136   0.8537   0.9107   1.0045   1.1031   1.9109
     2.0713   2.2552   2.4311   2.8071   2.9253   3.1178   3.3726   3.4305
     3.7055   3.8539   3.8645   3.9936   4.1940   4.3069   4.3403   4.6822
     4.7552   4.9681   5.8279   5.9565   5.9844   6.0506   6.5023   6.6313
     6.8185   7.1649

          k = 0.0000-0.1290-0.2971 ( 36464 PWs)   bands (ev):

   -44.1349 -44.1349 -22.2596 -22.2596 -22.1670 -22.1670 -22.0657 -22.0657
    -7.7657  -7.7657  -6.9539  -6.9539  -5.9890  -5.9890  -4.8134  -4.8134
    -4.2436  -4.2436   0.6338   0.6338   0.9560   0.9560   1.3615   1.3615
     2.3290   2.3290   2.6415   2.6415   2.8804   2.8804   3.5043   3.5043
     3.8411   3.8411   4.0247   4.0247   4.2513   4.2513   4.4051   4.4051
     4.6963   4.6963   5.9429   5.9429   6.2393   6.2393   6.4370   6.4370
     6.9590   6.9590

          k = 1.0162 0.0000 0.0000 ( 36499 PWs)   bands (ev):

   -44.1324 -44.1324 -22.2460 -22.2460 -22.2330 -22.2330 -22.0578 -22.0578
    -6.7191  -6.6989  -6.0256  -6.0154  -5.9773  -5.9704  -5.3132  -5.3126
    -4.4961  -4.4700  -0.0450  -0.0026   0.2772   0.3127   1.0014   1.0333
     1.4810   1.6487   2.2286   2.3943   2.3951   2.4155   2.7961   2.7992
     2.8089   2.8951   3.2459   3.2484   3.2603   3.3754   3.5907   3.6332
     3.7791   4.1260   6.5646   6.5751   6.6259   6.6751   7.0909   7.1342
     7.1396   7.1472

          k = 1.0162 0.0000 0.1485 ( 36485 PWs)   bands (ev):

   -44.1324 -44.1324 -22.2460 -22.2460 -22.2330 -22.2330 -22.0578 -22.0578
    -6.7152  -6.7008  -6.0482  -6.0408  -5.9534  -5.9487  -5.3104  -5.3099
    -4.4955  -4.4770  -0.1361  -0.1223   0.5045   0.5047   1.0126   1.0217
     1.4752   1.5831   2.0367   2.0627   2.3771   2.3838   2.6421   2.7605
     2.9662   3.0668   3.0704   3.1733   3.5142   3.6134   3.6578   3.7320
     3.9914   4.1895   6.0458   6.0923   6.4950   6.5823   7.1379   7.1429
     7.3681   7.3735

          k = 1.0162 0.0000-0.2971 ( 36514 PWs)   bands (ev):

   -44.1324 -44.1324 -22.2460 -22.2460 -22.2330 -22.2330 -22.0578 -22.0578
    -6.7070  -6.7070  -6.0602  -6.0602  -5.9365  -5.9365  -5.3074  -5.3074
    -4.4895  -4.4895  -0.1924  -0.1924   0.7432   0.7432   0.9561   0.9561
     1.5254   1.5254   1.7878   1.7878   2.3545   2.3545   2.7404   2.7404
     2.9747   2.9747   3.1220   3.1220   3.6410   3.6410   3.7993   3.7993
     4.3576   4.3576   5.6303   5.6303   6.4514   6.4514   7.1599   7.1599
     7.4550   7.4550

          k = 1.2703 0.0645 0.0000 ( 36468 PWs)   bands (ev):

   -44.1327 -44.1327 -22.2482 -22.2481 -22.2233 -22.2233 -22.0590 -22.0590
    -6.9353  -6.7498  -6.5887  -6.5263  -5.7683  -5.4112  -5.2031  -5.1174
    -4.5648  -4.5031  -0.0200   0.0257   0.4384   0.9460   1.0454   1.2453
     1.5078   1.7131   2.0600   2.1038   2.2781   2.3826   2.4325   2.8569
     2.9205   3.1665   3.3560   3.4963   3.5125   3.5787   3.6461   3.7372
     3.9736   4.4614   5.9452   6.3338   6.4713   6.7142   6.9467   7.0795
     7.2523   7.5955

          k = 1.2703 0.0645 0.1485 ( 36490 PWs)   bands (ev):

   -44.1327 -44.1327 -22.2481 -22.2481 -22.2233 -22.2233 -22.0590 -22.0590
    -6.9135  -6.7849  -6.5777  -6.5348  -5.7127  -5.4610  -5.1924  -5.1304
    -4.5528  -4.5100  -0.0197   0.1997   0.3264   0.8884   0.9749   1.1993
     1.5468   1.6347   1.8978   2.2302   2.2679   2.5949   2.6694   2.8860
     2.9233   3.1246   3.1727   3.3486   3.4599   3.5538   3.7605   3.8263
     3.9618   4.5204   5.6665   6.4241   6.6074   6.7630   6.8894   7.0826
     7.1374   7.5200

          k = 1.2703 0.0645-0.2971 ( 36480 PWs)   bands (ev):

   -44.1327 -44.1327 -22.2481 -22.2481 -22.2233 -22.2233 -22.0590 -22.0590
    -6.8552  -6.8552  -6.5555  -6.5555  -5.5845  -5.5845  -5.1621  -5.1621
    -4.5289  -4.5289   0.1132   0.1132   0.5501   0.5501   1.0410   1.0410
     1.5799   1.5799   2.1011   2.1011   2.4823   2.4823   2.8209   2.8209
     3.0251   3.0251   3.1684   3.1684   3.5903   3.5903   3.8792   3.8792
     4.0835   4.0835   6.1220   6.1220   6.4562   6.4562   7.0906   7.0906
     7.3596   7.3597

          k =-0.5081-0.3869 0.0000 ( 36463 PWs)   bands (ev):

   -44.1336 -44.1336 -22.2529 -22.2529 -22.2000 -22.2000 -22.0618 -22.0617
    -7.4174  -7.1048  -6.8919  -6.7189  -6.0524  -5.2611  -5.0646  -4.6918
    -4.6100  -4.4516   0.3382   0.6052   0.6439   1.2168   1.2967   1.5484
     1.6531   1.7245   2.0170   2.0701   2.1827   2.3178   2.4377   3.2793
     3.4299   3.4749   3.4989   3.6467   3.6926   3.7361   3.8786   4.1015
     4.3790   5.0495   5.5935   5.9428   6.1983   6.7919   6.7992   6.8585
     7.3327   7.5101

          k =-0.5081-0.3869 0.1485 ( 36477 PWs)   bands (ev):

   -44.1336 -44.1336 -22.2529 -22.2529 -22.2000 -22.2000 -22.0618 -22.0617
    -7.3872  -7.1830  -6.8382  -6.7322  -5.9709  -5.4754  -4.9056  -4.6536
    -4.6453  -4.4708   0.3668   0.6407   0.7466   0.9750   1.2782   1.3764
     1.6047   1.6955   1.9997   2.0620   2.3424   2.5501   2.8257   3.2292
     3.4277   3.4601   3.5002   3.5663   3.6147   3.7319   3.8324   4.1148
     4.2178   4.5277   6.0927   6.2182   6.2749   6.6744   6.8012   6.8879
     7.1625   7.4871

          k =-0.5081-0.3869-0.2971 ( 36492 PWs)   bands (ev):

   -44.1336 -44.1336 -22.2529 -22.2529 -22.2000 -22.2000 -22.0618 -22.0618
    -7.3020  -7.3020  -6.7722  -6.7722  -5.7562  -5.7562  -4.7558  -4.7558
    -4.5438  -4.5438   0.5003   0.5003   1.0098   1.0098   1.0567   1.0567
     1.6288   1.6288   2.0242   2.0242   2.7639   2.7639   3.1373   3.1373
     3.3638   3.3638   3.4605   3.4605   3.6828   3.6828   3.8394   3.8394
     4.2221   4.2221   6.3254   6.3254   6.6785   6.6785   6.7904   6.7904
     7.1790   7.1790

          k =-0.2541-0.3224 0.0000 ( 36485 PWs)   bands (ev):

   -44.1345 -44.1345 -22.2577 -22.2576 -22.1767 -22.1767 -22.0646 -22.0645
    -7.7627  -7.4380  -7.0469  -6.8406  -6.2533  -5.3709  -4.9472  -4.8010
    -4.7158  -3.9869   0.4644   0.8941   1.0948   1.2199   1.3181   1.5294
     1.8123   1.9021   1.9610   2.4657   2.5420   3.2378   3.3454   3.4999
     3.6018   3.6594   3.7440   3.8185   3.9335   4.1436   4.1548   4.2622
     4.3280   4.6136   5.9753   6.0372   6.3404   6.5824   6.6990   6.7805
     6.9211   7.0304

          k =-0.2541-0.3224 0.1485 ( 36445 PWs)   bands (ev):

   -44.1345 -44.1345 -22.2577 -22.2576 -22.1767 -22.1767 -22.0646 -22.0645
    -7.7304  -7.5137  -6.9879  -6.8564  -6.1700  -5.6092  -4.8431  -4.7364
    -4.6433  -4.0762   0.5160   0.9364   0.9726   1.1666   1.2973   1.4473
     1.7908   2.0432   2.2942   2.4690   2.5296   2.9272   3.3904   3.4505
     3.4980   3.5442   3.6638   3.8931   3.9161   4.0853   4.2080   4.2641
     4.6980   4.8177   5.8278   5.9980   6.1578   6.3677   6.5698   6.7480
     7.1418   7.2644

          k =-0.2541-0.3224-0.2971 ( 36442 PWs)   bands (ev):

   -44.1345 -44.1345 -22.2576 -22.2576 -22.1767 -22.1767 -22.0645 -22.0645
    -7.6391  -7.6391  -6.9056  -6.9056  -5.9356  -5.9356  -4.7849  -4.7849
    -4.3196  -4.3196   0.6822   0.6822   1.1527   1.1527   1.2291   1.2291
     2.0849   2.0849   2.4466   2.4466   2.6631   2.6631   3.2420   3.2420
     3.4783   3.4783   3.7969   3.7969   4.0457   4.0457   4.2437   4.2437
     5.0445   5.0445   5.7074   5.7074   6.1518   6.1518   6.6105   6.6105
     7.3647   7.3647

          k = 0.0000-0.2579 0.0000 ( 36445 PWs)   bands (ev):

   -44.1349 -44.1349 -22.2596 -22.2596 -22.1670 -22.1670 -22.0657 -22.0656
    -7.8857  -7.5528  -7.1166  -6.8852  -6.3115  -5.4174  -4.9265  -4.8420
    -4.7609  -3.8304   0.3826   0.7665   0.9291   1.1833   1.4719   1.6233
     2.2307   2.3243   2.4930   2.7725   2.9422   3.0337   3.3155   3.4093
     3.4579   3.6479   3.7755   3.9574   4.1553   4.1862   4.2610   4.6805
     4.7887   5.3985   5.7161   5.8846   5.9217   6.0619   6.2607   6.7912
     6.9976   7.1659

          k = 0.0000-0.2579 0.1485 ( 36452 PWs)   bands (ev):

   -44.1349 -44.1349 -22.2596 -22.2596 -22.1670 -22.1670 -22.0657 -22.0656
    -7.8526  -7.6304  -7.0508  -6.9024  -6.2313  -5.6632  -4.8615  -4.7792
    -4.6242  -3.9439   0.4469   0.9253   0.9581   1.0534   1.1530   1.9257
     2.1119   2.2569   2.4315   2.8206   2.9293   3.1188   3.3122   3.4026
     3.6341   3.6602   3.8395   3.9110   4.1822   4.1869   4.2189   4.6806
     4.7388   4.9591   5.8650   6.0044   6.0419   6.0636   6.5366   6.6113
     6.8208   7.1199

          k = 0.0000-0.2579-0.2971 ( 36454 PWs)   bands (ev):

   -44.1349 -44.1349 -22.2596 -22.2596 -22.1670 -22.1670 -22.0657 -22.0657
    -7.7590  -7.7590  -6.9574  -6.9574  -5.9981  -5.9981  -4.8189  -4.8189
    -4.2415  -4.2415   0.6679   0.6679   1.0408   1.0408   1.3787   1.3787
     2.3306   2.3306   2.6670   2.6670   2.8885   2.8885   3.3848   3.3848
     3.7751   3.7751   4.0062   4.0062   4.1183   4.1183   4.3838   4.3838
     4.6913   4.6913   5.9609   5.9609   6.2735   6.2735   6.4436   6.4436
     6.9391   6.9391

          k = 1.5243 0.0000 0.0000 ( 36439 PWs)   bands (ev):

   -44.1336 -44.1336 -22.2529 -22.2529 -22.2000 -22.2000 -22.0618 -22.0617
    -7.4133  -7.1041  -6.8920  -6.7217  -6.0561  -5.2610  -5.0674  -4.6935
    -4.6071  -4.4521   0.3333   0.6209   0.6284   1.2210   1.3160   1.6014
     1.6814   1.6844   2.0336   2.0668   2.2316   2.2801   2.4338   3.2359
     3.4267   3.4434   3.5071   3.6996   3.7080   3.7257   3.7687   4.1209
     4.3732   5.0508   5.5900   5.9046   6.2287   6.7557   6.8515   6.9151
     7.2878   7.5447

          k = 1.5243 0.0000 0.1485 ( 36476 PWs)   bands (ev):

   -44.1336 -44.1336 -22.2529 -22.2529 -22.2000 -22.2000 -22.0618 -22.0617
    -7.3833  -7.1809  -6.8402  -6.7354  -5.9735  -5.4756  -4.9095  -4.6527
    -4.6454  -4.4697   0.3645   0.6460   0.7427   0.9721   1.2860   1.3810
     1.6625   1.7179   2.0012   2.0424   2.3537   2.5500   2.8297   3.1886
     3.3888   3.4652   3.4841   3.5871   3.6419   3.7216   3.7885   4.1542
     4.1560   4.5327   6.0670   6.2317   6.2691   6.6445   6.8422   6.9566
     7.1156   7.5016

          k = 1.5243 0.0000-0.2971 ( 36508 PWs)   bands (ev):

   -44.1336 -44.1336 -22.2529 -22.2529 -22.2000 -22.2000 -22.0618 -22.0618
    -7.2987  -7.2987  -6.7755  -6.7755  -5.7571  -5.7571  -4.7592  -4.7592
    -4.5415  -4.5415   0.5022   0.5022   1.0076   1.0076   1.0537   1.0537
     1.6842   1.6842   2.0066   2.0066   2.7848   2.7848   3.0991   3.0991
     3.3638   3.3638   3.4517   3.4517   3.6809   3.6809   3.8354   3.8354
     4.2056   4.2056   6.3116   6.3116   6.6758   6.6758   6.8000   6.8000
     7.1952   7.1952

          k =-0.2541-0.4514 0.0000 ( 36444 PWs)   bands (ev):

   -44.1345 -44.1345 -22.2577 -22.2576 -22.1767 -22.1767 -22.0646 -22.0645
    -7.7561  -7.4369  -7.0425  -6.8449  -6.2669  -5.3727  -4.9565  -4.8009
    -4.7106  -3.9879   0.4753   0.9034   1.2125   1.2151   1.3351   1.6143
     1.8394   1.9391   1.9591   2.3866   2.4684   3.2246   3.3574   3.4294
     3.4932   3.7010   3.7592   3.8085   3.8591   4.1046   4.1144   4.1994
     4.3209   4.6221   6.0485   6.0515   6.3684   6.5832   6.7431   6.8023
     6.8326   7.0070

          k =-0.2541-0.4514 0.1485 ( 36461 PWs)   bands (ev):

   -44.1345 -44.1345 -22.2577 -22.2576 -22.1767 -22.1767 -22.0646 -22.0645
    -7.7240  -7.5104  -6.9875  -6.8609  -6.1805  -5.6114  -4.8556  -4.7336
    -4.6385  -4.0762   0.5254   0.9487   0.9763   1.2943   1.3476   1.4764
     1.8163   2.0447   2.3393   2.3941   2.4519   2.9327   3.3251   3.3602
     3.4654   3.5569   3.7284   3.8480   3.8855   3.9642   4.1975   4.2332
     4.7390   4.7838   5.8220   6.0220   6.1646   6.3579   6.6369   6.7409
     7.1291   7.2498

          k =-0.2541-0.4514-0.2971 ( 36490 PWs)   bands (ev):

   -44.1345 -44.1345 -22.2576 -22.2576 -22.1767 -22.1767 -22.0645 -22.0645
    -7.6337  -7.6337  -6.9094  -6.9094  -5.9409  -5.9409  -4.7895  -4.7895
    -4.3175  -4.3175   0.6887   0.6887   1.1674   1.1674   1.3301   1.3301
     2.0936   2.0936   2.3969   2.3969   2.6619   2.6619   3.2420   3.2420
     3.3717   3.3717   3.8313   3.8313   3.9816   3.9816   4.2132   4.2132
     5.0568   5.0568   5.6834   5.6834   6.1354   6.1354   6.6678   6.6678
     7.3538   7.3539

          k = 0.0000-0.3869 0.0000 ( 36477 PWs)   bands (ev):

   -44.1349 -44.1349 -22.2596 -22.2596 -22.1670 -22.1670 -22.0657 -22.0656
    -7.8774  -7.5514  -7.1083  -6.8910  -6.3325  -5.4211  -4.9427  -4.8388
    -4.7534  -3.8318   0.4056   0.7782   1.0799   1.2451   1.4963   1.6936
     2.2323   2.3273   2.4911   2.7916   2.9441   3.0683   3.1261   3.1697
     3.5624   3.5817   3.7478   3.9489   3.9977   4.0243   4.2612   4.6796
     4.7621   5.3722   5.7732   5.9032   5.9878   6.1093   6.3194   6.7132
     6.9977   7.1317

          k = 0.0000-0.3869 0.1485 ( 36452 PWs)   bands (ev):

   -44.1349 -44.1349 -22.2596 -22.2596 -22.1670 -22.1670 -22.0657 -22.0656
    -7.8446  -7.6262  -7.0480  -6.9081  -6.2480  -5.6675  -4.8779  -4.7748
    -4.6192  -3.9441   0.4657   0.9513   1.0219   1.1643   1.2325   1.9432
     2.1529   2.2585   2.4318   2.8353   2.9330   3.0252   3.1211   3.3314
     3.5507   3.7012   3.8140   3.9157   4.0480   4.0703   4.1792   4.6794
     4.7228   4.9567   5.9119   6.0436   6.0686   6.0771   6.5528   6.5685
     6.8231   7.0853

          k = 0.0000-0.3869-0.2971 ( 36454 PWs)   bands (ev):

   -44.1349 -44.1349 -22.2596 -22.2596 -22.1670 -22.1670 -22.0657 -22.0657
    -7.7521  -7.7521  -6.9610  -6.9610  -6.0071  -6.0071  -4.8245  -4.8245
    -4.2394  -4.2394   0.6840   0.6840   1.1691   1.1691   1.3971   1.3971
     2.3321   2.3321   2.6798   2.6798   2.8969   2.8969   3.1660   3.1660
     3.8128   3.8128   3.9872   3.9872   4.0002   4.0002   4.3603   4.3603
     4.6868   4.6868   5.9603   5.9603   6.3014   6.3014   6.4506   6.4506
     6.9090   6.9090

          k =-2.0325 0.0000 0.0000 ( 36452 PWs)   bands (ev):

   -44.1349 -44.1349 -22.2596 -22.2596 -22.1670 -22.1670 -22.0657 -22.0656
    -7.8738  -7.5509  -7.1052  -6.8929  -6.3414  -5.4226  -4.9492  -4.8366
    -4.7513  -3.8323   0.4113   0.7833   1.2011   1.2251   1.5059   1.7364
     2.2329   2.3295   2.4902   2.8000   2.9446   3.0006   3.0534   3.0881
     3.5829   3.6956   3.7362   3.8505   3.9471   3.9658   4.2612   4.6793
     4.7511   5.3642   5.7966   5.9110   6.0229   6.1239   6.3377   6.6649
     6.9977   7.1255

          k =-2.0325 0.0000 0.1485 ( 36456 PWs)   bands (ev):

   -44.1349 -44.1349 -22.2596 -22.2596 -22.1670 -22.1670 -22.0657 -22.0656
    -7.8412  -7.6244  -7.0470  -6.9102  -6.2550  -5.6693  -4.8841  -4.7734
    -4.6173  -3.9442   0.4697   0.9605   1.0404   1.2323   1.2772   1.9513
     2.1726   2.2592   2.4319   2.8418   2.9343   2.9365   3.0024   3.3434
     3.5291   3.7774   3.8033   3.9220   3.9548   4.0063   4.1759   4.6790
     4.7163   4.9566   5.9360   6.0600   6.0707   6.0827   6.5357   6.5626
     6.8240   7.0748

          k =-2.0325 0.0000-0.2971 ( 36460 PWs)   bands (ev):

   -44.1349 -44.1349 -22.2596 -22.2596 -22.1670 -22.1670 -22.0657 -22.0657
    -7.7493  -7.7493  -6.9626  -6.9626  -6.0108  -6.0108  -4.8268  -4.8268
    -4.2385  -4.2385   0.6871   0.6871   1.2377   1.2377   1.4050   1.4050
     2.3327   2.3327   2.6714   2.6714   2.9005   2.9005   3.0717   3.0717
     3.8637   3.8637   3.9272   3.9272   3.9792   3.9792   4.3518   4.3518
     4.6850   4.6850   5.9565   5.9565   6.3109   6.3109   6.4535   6.4535
     6.8954   6.8954

     the Fermi energy is     5.5076 ev

     WARNING: integrated charge=    83.99983848, expected=    84.00000000

!    total energy              =   -4240.95399194 Ry

     total all-electron energy =   -150287.647687 Ry
     estimated scf accuracy    <          9.1E-11 Ry
     smearing contrib. (-TS)   =       0.00000561 Ry
     internal energy E=F+TS    =   -4240.95399755 Ry

     The total energy is F=E-TS. E is the sum of the following terms:
     one-electron contribution =    -167.08862012 Ry
     hartree contribution      =     117.02018774 Ry
     xc contribution           =    -201.51099862 Ry
     ewald contribution        =    -221.85282953 Ry
     one-center paw contrib.   =   -3767.52173703 Ry

     convergence has been achieved in  17 iterations

     Forces acting on atoms (cartesian axes, Ry/au):

     atom    1 type  1   force =     0.00000000    0.00167047    0.00000000
     atom    2 type  1   force =     0.00000000   -0.00167047    0.00000000
     atom    3 type  2   force =     0.00000000    0.00005932    0.00000000
     atom    4 type  2   force =     0.00000000   -0.00005932    0.00000000
     atom    5 type  2   force =     0.00000000   -0.00037966   -0.00002010
     atom    6 type  2   force =    -0.00000000    0.00037966    0.00002010
     atom    7 type  2   force =     0.00000000   -0.00037966    0.00002010
     atom    8 type  2   force =    -0.00000000    0.00037966   -0.00002010
     atom    9 type  2   force =     0.00000000   -0.00265676   -0.00284529
     atom   10 type  2   force =     0.00000000    0.00265676    0.00284529
     atom   11 type  2   force =     0.00000000   -0.00265676    0.00284529
     atom   12 type  2   force =     0.00000000    0.00265676   -0.00284529

     Total force =     0.008172     Total SCF correction =     0.000014


     Computing stress (Cartesian axis) and pressure

          total   stress  (Ry/bohr**3)                   (kbar)     P=        0.61
   0.00000388   0.00000000   0.00000000            0.57        0.00        0.00
   0.00000000   0.00000314   0.00000000            0.00        0.46        0.00
   0.00000000   0.00000000   0.00000552            0.00        0.00        0.81

 
     init_run     :     18.05s CPU     18.53s WALL (       1 calls)
     electrons    :    897.17s CPU    908.41s WALL (       1 calls)
     forces       :      6.51s CPU      6.74s WALL (       1 calls)
     stress       :     41.26s CPU     41.83s WALL (       1 calls)

     Called by init_run:
     wfcinit      :     13.64s CPU     13.84s WALL (       1 calls)
     potinit      :      1.32s CPU      1.37s WALL (       1 calls)
     hinit0       :      1.69s CPU      1.74s WALL (       1 calls)

     Called by electrons:
     c_bands      :    742.72s CPU    746.53s WALL (      18 calls)
     sum_band     :    129.83s CPU    133.92s WALL (      18 calls)
     v_of_rho     :      5.38s CPU      5.64s WALL (      18 calls)
     newd         :     13.61s CPU     16.80s WALL (      18 calls)
     PAW_pot      :      5.71s CPU      5.72s WALL (      18 calls)
     mix_rho      :      0.78s CPU      0.82s WALL (      18 calls)

     Called by c_bands:
     init_us_2    :     10.96s CPU     11.02s WALL (    2457 calls)
     cegterg      :    669.12s CPU    672.34s WALL (    1134 calls)

     Called by *egterg:
     cdiaghg      :     25.95s CPU     26.04s WALL (    7738 calls)
     h_psi        :    512.15s CPU    515.16s WALL (    7864 calls)
     s_psi        :     42.08s CPU     42.18s WALL (    7864 calls)
     g_psi        :      1.80s CPU      1.81s WALL (    6667 calls)

     Called by h_psi:
     h_psi:calbec :     36.44s CPU     36.54s WALL (    7864 calls)
     vloc_psi     :    430.94s CPU    433.66s WALL (    7864 calls)
     add_vuspsi   :     41.86s CPU     41.96s WALL (    7864 calls)

     General routines
     calbec       :     48.40s CPU     48.54s WALL (    9313 calls)
     fft          :      3.29s CPU      3.42s WALL (     258 calls)
     ffts         :      0.08s CPU      0.08s WALL (      36 calls)
     fftw         :    397.98s CPU    400.42s WALL (  401550 calls)
     interpolate  :      0.30s CPU      0.30s WALL (      18 calls)
 
     Parallel routines
 
     PWSCF        :  16m 3.25s CPU  16m15.86s WALL

 
   This run was terminated on:  15:30:46  19Nov2021            

=------------------------------------------------------------------------------=
   JOB DONE.
=------------------------------------------------------------------------------=
