
     Program PWSCF v.6.8 starts on 19Nov2021 at 15:15:19 

     This program is part of the open-source Quantum ESPRESSO suite
     for quantum simulation of materials; please cite
         "P. Giannozzi et al., J. Phys.:Condens. Matter 21 395502 (2009);
         "P. Giannozzi et al., J. Phys.:Condens. Matter 29 465901 (2017);
         "P. Giannozzi et al., J. Chem. Phys. 152 154105 (2020);
          URL http://www.quantum-espresso.org", 
     in publications or presentations arising from this work. More details at
     http://www.quantum-espresso.org/quote

     Parallel version (MPI), running on    10 processors

     MPI processes distributed on     1 nodes
     R & G space division:  proc/nbgrp/npool/nimage =      10
     69095 MiB available memory on the printing compute node when the environment starts
 
     Waiting for input...
     Reading input from standard input

     Current dimensions of program PWSCF are:
     Max number of different atomic species (ntypx) = 10
     Max number of k-points (npk) =  40000
     Max angular momentum in pseudopotentials (lmaxx) =  4
     file Zr.pbe-spn-kjpaw_psl.1.0.0.UPF: wavefunction(s)  4S 4P renormalized
     file Te.pbe-n-kjpaw_psl.1.0.0.UPF: wavefunction(s)  5S 5P renormalized
     Message from routine setup:
     using ibrav=0 with symmetry is DISCOURAGED, use correct ibrav instead

     Subspace diagonalization in iterative solution of the eigenvalue problem:
     a serial algorithm will be used

 
     Parallelization info
     --------------------
     sticks:   dense  smooth     PW     G-vecs:    dense   smooth      PW
     Min         734     293     87               115340    29174    4753
     Max         735     295     88               115345    29176    4760
     Sum        7345    2937    873              1153415   291749   47557
 
     Using Slab Decomposition
 


     bravais-lattice index     =            0
     lattice parameter (alat)  =      15.5510  a.u.
     unit-cell volume          =    3018.5011 (a.u.)^3
     number of atoms/cell      =           12
     number of atomic types    =            2
     number of electrons       =        84.00
     number of Kohn-Sham states=           50
     kinetic-energy cutoff     =      80.0000  Ry
     charge density cutoff     =     800.0000  Ry
     scf convergence threshold =      1.0E-10
     mixing beta               =       0.7000
     number of iterations used =            8  plain     mixing
     Exchange-correlation= SLA  PW   PBX  PBC
                           (   1   4   3   4   0   0   0)

     celldm(1)=  15.551040  celldm(2)=   0.000000  celldm(3)=   0.000000
     celldm(4)=   0.000000  celldm(5)=   0.000000  celldm(6)=   0.000000

     crystal axes: (cart. coord. in units of alat)
               a(1) = (   0.246007  -0.969268   0.000000 )  
               a(2) = (   0.246007   0.969268   0.000000 )  
               a(3) = (   0.000000   0.000000   1.683031 )  

     reciprocal axes: (cart. coord. in units 2 pi/alat)
               b(1) = (  2.032465 -0.515853  0.000000 )  
               b(2) = (  2.032465  0.515853  0.000000 )  
               b(3) = (  0.000000  0.000000  0.594166 )  


     PseudoPot. # 1 for Zr read from file:
     pseudo/Zr.pbe-spn-kjpaw_psl.1.0.0.UPF
     MD5 check sum: 02112c41713a0468aff2bb39ef194e36
     Pseudo is Projector augmented-wave + core cor, Zval = 12.0
     Generated using &quot;atomic&quot; code by A. Dal Corso  v.6.2.2
     Shape of augmentation charge: PSQ
     Using radial grid of 1225 points,  6 beta functions with: 
                l(1) =   0
                l(2) =   0
                l(3) =   1
                l(4) =   1
                l(5) =   2
                l(6) =   2
     Q(r) pseudized with 0 coefficients 


     PseudoPot. # 2 for Te read from file:
     pseudo/Te.pbe-n-kjpaw_psl.1.0.0.UPF
     MD5 check sum: 66247bff2bd9dbf220fbb0bf5ab56e9d
     Pseudo is Projector augmented-wave + core cor, Zval =  6.0
     Generated using &quot;atomic&quot; code by A. Dal Corso  v.6.3
     Shape of augmentation charge: PSQ
     Using radial grid of 1245 points,  6 beta functions with: 
                l(1) =   0
                l(2) =   0
                l(3) =   1
                l(4) =   1
                l(5) =   2
                l(6) =   2
     Q(r) pseudized with 0 coefficients 


     atomic species   valence    mass     pseudopotential
        Zr            12.00    91.22000     Zr( 1.00)
        Te             6.00   127.60000     Te( 1.00)

      8 Sym. Ops., with inversion, found ( 4 have fractional translation)



   Cartesian axes

     site n.     atom                  positions (alat units)
         1           Zr  tau(   1) = (   0.0000000   0.6027702   0.4207578  )
         2           Zr  tau(   2) = (   0.2460067   0.3664979   1.2622733  )
         3           Te  tau(   3) = (   0.2460067   0.3341914   0.4207578  )
         4           Te  tau(   4) = (   0.0000000   0.6350767   1.2622733  )
         5           Te  tau(   5) = (   0.2460067   0.8111173   0.2529449  )
         6           Te  tau(   6) = (   0.0000000   0.1581509   1.4300861  )
         7           Te  tau(   7) = (   0.2460067   0.8111173   0.5885706  )
         8           Te  tau(   8) = (   0.0000000   0.1581509   1.0944605  )
         9           Te  tau(   9) = (   0.0000000   0.4198622   0.7356245  )
        10           Te  tau(  10) = (   0.2460067   0.5494059   0.9474066  )
        11           Te  tau(  11) = (   0.0000000   0.4198622   0.1058910  )
        12           Te  tau(  12) = (   0.2460067   0.5494059   1.5771400  )

     number of k points=    63  Methfessel-Paxton smearing, width (Ry)=  0.0030
                       cart. coord. in units 2pi/alat
        k(    1) = (   0.0000000   0.0000000   0.0000000), wk =   0.0078125
        k(    2) = (   0.0000000   0.0000000   0.1485415), wk =   0.0156250
        k(    3) = (   0.0000000   0.0000000  -0.2970830), wk =   0.0078125
        k(    4) = (   0.2540581   0.0644816   0.0000000), wk =   0.0312500
        k(    5) = (   0.2540581   0.0644816   0.1485415), wk =   0.0625000
        k(    6) = (   0.2540581   0.0644816  -0.2970830), wk =   0.0312500
        k(    7) = (   0.5081162   0.1289633   0.0000000), wk =   0.0312500
        k(    8) = (   0.5081162   0.1289633   0.1485415), wk =   0.0625000
        k(    9) = (   0.5081162   0.1289633  -0.2970830), wk =   0.0312500
        k(   10) = (   0.7621743   0.1934449   0.0000000), wk =   0.0312500
        k(   11) = (   0.7621743   0.1934449   0.1485415), wk =   0.0625000
        k(   12) = (   0.7621743   0.1934449  -0.2970830), wk =   0.0312500
        k(   13) = (  -1.0162324  -0.2579266   0.0000000), wk =   0.0156250
        k(   14) = (  -1.0162324  -0.2579266   0.1485415), wk =   0.0312500
        k(   15) = (  -1.0162324  -0.2579266  -0.2970830), wk =   0.0156250
        k(   16) = (   0.5081162   0.0000000   0.0000000), wk =   0.0156250
        k(   17) = (   0.5081162   0.0000000   0.1485415), wk =   0.0312500
        k(   18) = (   0.5081162   0.0000000  -0.2970830), wk =   0.0156250
        k(   19) = (   0.7621743   0.0644816   0.0000000), wk =   0.0312500
        k(   20) = (   0.7621743   0.0644816   0.1485415), wk =   0.0625000
        k(   21) = (   0.7621743   0.0644816  -0.2970830), wk =   0.0312500
        k(   22) = (   1.0162324   0.1289633   0.0000000), wk =   0.0312500
        k(   23) = (   1.0162324   0.1289633   0.1485415), wk =   0.0625000
        k(   24) = (   1.0162324   0.1289633  -0.2970830), wk =   0.0312500
        k(   25) = (  -0.7621743  -0.3224082   0.0000000), wk =   0.0312500
        k(   26) = (  -0.7621743  -0.3224082   0.1485415), wk =   0.0625000
        k(   27) = (  -0.7621743  -0.3224082  -0.2970830), wk =   0.0312500
        k(   28) = (  -0.5081162  -0.2579266   0.0000000), wk =   0.0312500
        k(   29) = (  -0.5081162  -0.2579266   0.1485415), wk =   0.0625000
        k(   30) = (  -0.5081162  -0.2579266  -0.2970830), wk =   0.0312500
        k(   31) = (  -0.2540581  -0.1934449   0.0000000), wk =   0.0312500
        k(   32) = (  -0.2540581  -0.1934449   0.1485415), wk =   0.0625000
        k(   33) = (  -0.2540581  -0.1934449  -0.2970830), wk =   0.0312500
        k(   34) = (   0.0000000  -0.1289633   0.0000000), wk =   0.0156250
        k(   35) = (   0.0000000  -0.1289633   0.1485415), wk =   0.0312500
        k(   36) = (   0.0000000  -0.1289633  -0.2970830), wk =   0.0156250
        k(   37) = (   1.0162324   0.0000000   0.0000000), wk =   0.0156250
        k(   38) = (   1.0162324   0.0000000   0.1485415), wk =   0.0312500
        k(   39) = (   1.0162324   0.0000000  -0.2970830), wk =   0.0156250
        k(   40) = (   1.2702905   0.0644816   0.0000000), wk =   0.0312500
        k(   41) = (   1.2702905   0.0644816   0.1485415), wk =   0.0625000
        k(   42) = (   1.2702905   0.0644816  -0.2970830), wk =   0.0312500
        k(   43) = (  -0.5081162  -0.3868899   0.0000000), wk =   0.0312500
        k(   44) = (  -0.5081162  -0.3868899   0.1485415), wk =   0.0625000
        k(   45) = (  -0.5081162  -0.3868899  -0.2970830), wk =   0.0312500
        k(   46) = (  -0.2540581  -0.3224082   0.0000000), wk =   0.0312500
        k(   47) = (  -0.2540581  -0.3224082   0.1485415), wk =   0.0625000
        k(   48) = (  -0.2540581  -0.3224082  -0.2970830), wk =   0.0312500
        k(   49) = (   0.0000000  -0.2579266   0.0000000), wk =   0.0156250
        k(   50) = (   0.0000000  -0.2579266   0.1485415), wk =   0.0312500
        k(   51) = (   0.0000000  -0.2579266  -0.2970830), wk =   0.0156250
        k(   52) = (   1.5243485   0.0000000   0.0000000), wk =   0.0156250
        k(   53) = (   1.5243485   0.0000000   0.1485415), wk =   0.0312500
        k(   54) = (   1.5243485   0.0000000  -0.2970830), wk =   0.0156250
        k(   55) = (  -0.2540581  -0.4513715   0.0000000), wk =   0.0312500
        k(   56) = (  -0.2540581  -0.4513715   0.1485415), wk =   0.0625000
        k(   57) = (  -0.2540581  -0.4513715  -0.2970830), wk =   0.0312500
        k(   58) = (   0.0000000  -0.3868899   0.0000000), wk =   0.0156250
        k(   59) = (   0.0000000  -0.3868899   0.1485415), wk =   0.0312500
        k(   60) = (   0.0000000  -0.3868899  -0.2970830), wk =   0.0156250
        k(   61) = (  -2.0324647   0.0000000   0.0000000), wk =   0.0078125
        k(   62) = (  -2.0324647   0.0000000   0.1485415), wk =   0.0156250
        k(   63) = (  -2.0324647   0.0000000  -0.2970830), wk =   0.0078125

     Dense  grid:  1153415 G-vectors     FFT dimensions: ( 144, 144, 240)

     Smooth grid:   291749 G-vectors     FFT dimensions: (  90,  90, 150)

     Estimated max dynamical RAM per process >     657.19 MB

     Estimated total dynamical RAM >       6.42 GB

     Initial potential from superposition of free atoms

     starting charge   83.99353, renormalised to   84.00000
     Starting wfcs are   66 randomized atomic wfcs
     Checking if some PAW data can be deallocated... 

     total cpu time spent up to now is       20.3 secs

     Self-consistent Calculation

     iteration #  1     ecut=    80.00 Ry     beta= 0.70
     Davidson diagonalization with overlap
     ethr =  1.00E-02,  avg # of iterations =  2.2

     Threshold (ethr) on eigenvalues was too large:
     Diagonalizing with lowered threshold

     Davidson diagonalization with overlap
     ethr =  4.40E-04,  avg # of iterations =  4.0

     total cpu time spent up to now is      107.8 secs

     total energy              =   -4240.72298288 Ry
     estimated scf accuracy    <       0.44217101 Ry

     iteration #  2     ecut=    80.00 Ry     beta= 0.70
     Davidson diagonalization with overlap
     ethr =  5.26E-04,  avg # of iterations =  7.9

     total cpu time spent up to now is      172.1 secs

     total energy              =   -4240.62652465 Ry
     estimated scf accuracy    <       2.03779188 Ry

     iteration #  3     ecut=    80.00 Ry     beta= 0.70
     Davidson diagonalization with overlap
     ethr =  5.26E-04,  avg # of iterations =  5.4

     total cpu time spent up to now is      225.4 secs

     total energy              =   -4240.93617636 Ry
     estimated scf accuracy    <       0.00792007 Ry

     iteration #  4     ecut=    80.00 Ry     beta= 0.70
     Davidson diagonalization with overlap
     c_bands:  1 eigenvalues not converged
     c_bands:  1 eigenvalues not converged
     c_bands:  2 eigenvalues not converged
     c_bands:  1 eigenvalues not converged
     c_bands:  1 eigenvalues not converged
     c_bands:  2 eigenvalues not converged
     c_bands:  2 eigenvalues not converged
     c_bands:  1 eigenvalues not converged
     c_bands:  1 eigenvalues not converged
     c_bands:  3 eigenvalues not converged
     c_bands:  1 eigenvalues not converged
     c_bands:  2 eigenvalues not converged
     c_bands:  1 eigenvalues not converged
     c_bands:  2 eigenvalues not converged
     c_bands:  3 eigenvalues not converged
     c_bands:  1 eigenvalues not converged
     c_bands:  1 eigenvalues not converged
     c_bands:  1 eigenvalues not converged
     c_bands:  1 eigenvalues not converged
     c_bands:  1 eigenvalues not converged
     c_bands:  1 eigenvalues not converged
     c_bands:  1 eigenvalues not converged
     c_bands:  1 eigenvalues not converged
     ethr =  9.43E-06,  avg # of iterations = 17.7

     total cpu time spent up to now is      326.6 secs

     total energy              =   -4240.94575649 Ry
     estimated scf accuracy    <       0.03949435 Ry

     iteration #  5     ecut=    80.00 Ry     beta= 0.70
     Davidson diagonalization with overlap
     ethr =  9.43E-06,  avg # of iterations =  7.1

     total cpu time spent up to now is      380.8 secs

     total energy              =   -4240.94747697 Ry
     estimated scf accuracy    <       0.00681745 Ry

     iteration #  6     ecut=    80.00 Ry     beta= 0.70
     Davidson diagonalization with overlap
     ethr =  8.12E-06,  avg # of iterations =  3.1

     total cpu time spent up to now is      422.8 secs

     total energy              =   -4240.94813188 Ry
     estimated scf accuracy    <       0.00082038 Ry

     iteration #  7     ecut=    80.00 Ry     beta= 0.70
     Davidson diagonalization with overlap
     ethr =  9.77E-07,  avg # of iterations =  9.6

     total cpu time spent up to now is      491.4 secs

     total energy              =   -4240.94855987 Ry
     estimated scf accuracy    <       0.00104160 Ry

     iteration #  8     ecut=    80.00 Ry     beta= 0.70
     Davidson diagonalization with overlap
     ethr =  9.77E-07,  avg # of iterations =  2.2

     total cpu time spent up to now is      529.9 secs

     total energy              =   -4240.94859304 Ry
     estimated scf accuracy    <       0.00014620 Ry

     iteration #  9     ecut=    80.00 Ry     beta= 0.70
     Davidson diagonalization with overlap
     ethr =  1.74E-07,  avg # of iterations =  6.3

     total cpu time spent up to now is      583.8 secs

     total energy              =   -4240.94864096 Ry
     estimated scf accuracy    <       0.00002156 Ry

     iteration # 10     ecut=    80.00 Ry     beta= 0.70
     Davidson diagonalization with overlap
     ethr =  2.57E-08,  avg # of iterations =  3.3

     total cpu time spent up to now is      624.3 secs

     total energy              =   -4240.94864304 Ry
     estimated scf accuracy    <       0.00000329 Ry

     iteration # 11     ecut=    80.00 Ry     beta= 0.70
     Davidson diagonalization with overlap
     ethr =  3.91E-09,  avg # of iterations =  6.3

     total cpu time spent up to now is      680.6 secs

     total energy              =   -4240.94864476 Ry
     estimated scf accuracy    <       0.00000108 Ry

     iteration # 12     ecut=    80.00 Ry     beta= 0.70
     Davidson diagonalization with overlap
     ethr =  1.28E-09,  avg # of iterations =  2.2

     total cpu time spent up to now is      718.3 secs

     total energy              =   -4240.94864481 Ry
     estimated scf accuracy    <       0.00000014 Ry

     iteration # 13     ecut=    80.00 Ry     beta= 0.70
     Davidson diagonalization with overlap
     ethr =  1.72E-10,  avg # of iterations =  6.3

     total cpu time spent up to now is      774.5 secs

     total energy              =   -4240.94864489 Ry
     estimated scf accuracy    <       0.00000007 Ry

     iteration # 14     ecut=    80.00 Ry     beta= 0.70
     Davidson diagonalization with overlap
     ethr =  7.78E-11,  avg # of iterations =  1.3

     total cpu time spent up to now is      811.1 secs

     total energy              =   -4240.94864488 Ry
     estimated scf accuracy    <       0.00000003 Ry

     iteration # 15     ecut=    80.00 Ry     beta= 0.70
     Davidson diagonalization with overlap
     ethr =  3.19E-11,  avg # of iterations =  5.1

     total cpu time spent up to now is      858.2 secs

     total energy              =   -4240.94864489 Ry
     estimated scf accuracy    <          6.7E-10 Ry

     iteration # 16     ecut=    80.00 Ry     beta= 0.70
     Davidson diagonalization with overlap
     ethr =  7.92E-13,  avg # of iterations =  8.1

     total cpu time spent up to now is      920.4 secs

     total energy              =   -4240.94864489 Ry
     estimated scf accuracy    <          2.7E-09 Ry

     iteration # 17     ecut=    80.00 Ry     beta= 0.70
     Davidson diagonalization with overlap
     ethr =  7.92E-13,  avg # of iterations =  3.6

     total cpu time spent up to now is      964.8 secs

     total energy              =   -4240.94864489 Ry
     estimated scf accuracy    <          3.4E-10 Ry

     iteration # 18     ecut=    80.00 Ry     beta= 0.70
     Davidson diagonalization with overlap
     ethr =  4.04E-13,  avg # of iterations =  6.1

     total cpu time spent up to now is     1013.2 secs

     End of self-consistent calculation

          k = 0.0000 0.0000 0.0000 ( 36359 PWs)   bands (ev):

   -44.1402 -44.1402 -22.2592 -22.2591 -22.1685 -22.1685 -22.0740 -22.0738
    -8.0585  -7.8008  -7.1289  -6.9218  -6.1804  -5.4133  -4.8099  -4.8036
    -4.7599  -3.8001   0.2732   0.7677   0.8073   1.1447   1.3587   1.5364
     2.0443   2.2175   2.2841   2.7827   2.9209   2.9981   3.3203   3.3286
     3.7855   3.8849   4.0443   4.0862   4.3136   4.3403   4.4159   4.7108
     4.7485   5.3994   5.6366   5.8750   5.8992   5.9650   6.0030   6.7819
     7.0452   7.2791

          k = 0.0000 0.0000 0.1485 ( 36415 PWs)   bands (ev):

   -44.1403 -44.1402 -22.2592 -22.2591 -22.1685 -22.1685 -22.0739 -22.0738
    -8.0298  -7.8523  -7.0810  -6.9405  -6.1124  -5.6188  -4.8027  -4.7673
    -4.5709  -3.9120   0.3477   0.8372   0.9118   0.9631   1.1013   1.8754
     2.0262   2.0645   2.1850   2.8111   2.9065   3.0729   3.3992   3.4345
     3.7579   3.9384   4.0173   4.0957   4.2430   4.3698   4.4279   4.7070
     4.7226   4.9207   5.8395   5.8950   5.9004   6.1256   6.3761   6.6176
     6.8598   7.1464

          k = 0.0000 0.0000-0.2971 ( 36410 PWs)   bands (ev):

   -44.1402 -44.1402 -22.2591 -22.2591 -22.1685 -22.1685 -22.0739 -22.0739
    -7.9513  -7.9513  -6.9974  -6.9974  -5.9122  -5.9122  -4.7851  -4.7851
    -4.2031  -4.2031   0.5742   0.5742   0.9575   0.9575   1.3441   1.3441
     2.1190   2.1190   2.5905   2.5905   2.8653   2.8653   3.5668   3.5668
     3.9203   3.9203   4.0808   4.0808   4.3245   4.3245   4.4150   4.4150
     4.7039   4.7039   5.8925   5.8925   6.2247   6.2247   6.4848   6.4848
     6.8583   6.8583

          k = 0.2541 0.0645 0.0000 ( 36396 PWs)   bands (ev):

   -44.1399 -44.1399 -22.2572 -22.2572 -22.1781 -22.1781 -22.0728 -22.0727
    -7.9361  -7.6817  -7.0621  -6.8731  -6.1201  -5.3658  -4.8411  -4.7649
    -4.7148  -3.9687   0.3565   0.8854   0.9331   1.0745   1.2564   1.4744
     1.6143   1.7394   1.8023   2.5835   2.6111   3.2410   3.2430   3.7125
     3.7707   3.7761   3.8612   3.8688   4.0565   4.2548   4.3251   4.3759
     4.4753   4.5733   5.8868   5.9791   6.1826   6.5339   6.6030   6.6519
     7.0316   7.2098

          k = 0.2541 0.0645 0.1485 ( 36423 PWs)   bands (ev):

   -44.1399 -44.1399 -22.2572 -22.2572 -22.1781 -22.1781 -22.0728 -22.0727
    -7.9079  -7.7327  -7.0179  -6.8901  -6.0514  -5.5665  -4.7703  -4.7241
    -4.6136  -4.0572   0.4196   0.8761   0.9240   0.9754   1.2065   1.2890
     1.7309   1.8169   2.1374   2.5795   2.5935   2.9543   3.3903   3.3990
     3.5313   3.8211   3.9537   4.0003   4.0501   4.1914   4.3775   4.3951
     4.6903   4.7661   5.8701   5.9844   6.1400   6.2455   6.3517   6.7793
     7.2126   7.2667

          k = 0.2541 0.0645-0.2971 ( 36436 PWs)   bands (ev):

   -44.1399 -44.1399 -22.2572 -22.2572 -22.1781 -22.1781 -22.0728 -22.0728
    -7.8305  -7.8305  -6.9417  -6.9417  -5.8526  -5.8526  -4.7462  -4.7462
    -4.2965  -4.2965   0.6053   0.6053   1.0234   1.0234   1.1185   1.1185
     1.8976   1.8976   2.4856   2.4856   2.6568   2.6568   3.2429   3.2429
     3.6604   3.6604   3.9828   3.9828   4.1466   4.1466   4.3986   4.3986
     4.9615   4.9615   5.7936   5.7936   6.1481   6.1481   6.4566   6.4566
     7.3778   7.3778

          k = 0.5081 0.1290 0.0000 ( 36499 PWs)   bands (ev):

   -44.1390 -44.1390 -22.2525 -22.2525 -22.2013 -22.2012 -22.0701 -22.0700
    -7.5805  -7.3330  -6.9033  -6.7502  -5.9425  -5.2516  -5.0199  -4.6512
    -4.6039  -4.4661   0.1886   0.5356   0.6684   1.1362   1.1726   1.3045
     1.6331   1.7068   1.8576   2.0902   2.1518   2.3386   2.5116   3.4117
     3.5030   3.5220   3.5779   3.6175   3.7705   3.8555   3.9691   4.2036
     4.3433   4.9391   5.7327   6.1206   6.2154   6.6029   6.6299   7.0104
     7.4486   7.5588

          k = 0.5081 0.1290 0.1485 ( 36476 PWs)   bands (ev):

   -44.1390 -44.1390 -22.2525 -22.2525 -22.2013 -22.2012 -22.0701 -22.0700
    -7.5536  -7.3843  -6.8659  -6.7638  -5.8760  -5.4411  -4.8691  -4.6364
    -4.6220  -4.4880   0.2312   0.5290   0.7637   0.9263   1.2093   1.2941
     1.4053   1.5718   2.0087   2.0935   2.3452   2.4614   2.8365   3.3965
     3.4411   3.5066   3.5093   3.6445   3.7429   3.7700   3.8602   4.2455
     4.2993   4.4781   6.2026   6.2398   6.3937   6.6032   6.6796   6.8780
     7.2955   7.5224

          k = 0.5081 0.1290-0.2971 ( 36466 PWs)   bands (ev):

   -44.1390 -44.1390 -22.2525 -22.2525 -22.2012 -22.2012 -22.0701 -22.0701
    -7.4795  -7.4795  -6.8047  -6.8047  -5.6926  -5.6926  -4.7193  -4.7193
    -4.5530  -4.5530   0.3741   0.3741   0.9890   0.9890   1.0203   1.0203
     1.4462   1.4462   2.0555   2.0555   2.6762   2.6762   3.1790   3.1790
     3.3963   3.3963   3.5699   3.5699   3.7383   3.7383   3.8743   3.8743
     4.3257   4.3257   6.4414   6.4414   6.5677   6.5677   6.8689   6.8689
     7.1972   7.1972

          k = 0.7622 0.1934 0.0000 ( 36521 PWs)   bands (ev):

   -44.1381 -44.1381 -22.2477 -22.2477 -22.2243 -22.2243 -22.0674 -22.0674
    -7.0545  -6.7860  -6.7553  -6.5845  -5.7342  -5.4612  -5.1698  -5.1366
    -4.5253  -4.4880  -0.1146   0.0197   0.3425   0.9537   0.9619   1.2873
     1.4859   1.6008   1.9991   2.1683   2.2322   2.2714   2.4369   2.8033
     2.9505   3.2585   3.3529   3.4920   3.5118   3.6680   3.7336   3.7741
     3.8316   4.5745   6.0520   6.4082   6.4816   6.9021   6.9252   6.9919
     7.3609   7.6359

          k = 0.7622 0.1934 0.1485 ( 36503 PWs)   bands (ev):

   -44.1381 -44.1381 -22.2477 -22.2477 -22.2243 -22.2243 -22.0674 -22.0674
    -7.0309  -6.8713  -6.6868  -6.5959  -5.6915  -5.4971  -5.1701  -5.1444
    -4.5175  -4.4916  -0.0908   0.1599   0.2351   0.8328   0.9666   1.2413
     1.4966   1.6085   1.9817   2.0430   2.1262   2.5975   2.6946   2.8847
     2.9177   3.0532   3.2716   3.3747   3.5172   3.6134   3.7067   3.9314
     3.9802   4.4775   5.8679   6.4037   6.7088   6.8376   7.0130   7.0181
     7.1435   7.6382

          k = 0.7622 0.1934-0.2971 ( 36522 PWs)   bands (ev):

   -44.1381 -44.1381 -22.2477 -22.2477 -22.2243 -22.2243 -22.0674 -22.0674
    -6.9650  -6.9650  -6.6298  -6.6298  -5.5915  -5.5915  -5.1608  -5.1608
    -4.5024  -4.5024   0.0372   0.0372   0.4840   0.4840   1.0817   1.0817
     1.5599   1.5599   2.0072   2.0072   2.4111   2.4111   2.8353   2.8353
     2.9744   2.9744   3.2883   3.2883   3.5977   3.5977   3.9371   3.9371
     4.0643   4.0643   6.2790   6.2790   6.4964   6.4964   7.0360   7.0360
     7.5117   7.5117

          k =-1.0162-0.2579 0.0000 ( 36506 PWs)   bands (ev):

   -44.1377 -44.1377 -22.2457 -22.2457 -22.2339 -22.2339 -22.0663 -22.0663
    -6.7395  -6.7190  -6.1491  -6.1378  -6.1163  -6.1108  -5.2423  -5.2417
    -4.4677  -4.4395  -0.0913  -0.0709   0.2193   0.2410   1.0110   1.0194
     1.4671   1.6635   2.2228   2.3864   2.4040   2.4270   2.8105   2.8171
     2.8232   2.8399   3.1904   3.2489   3.3140   3.3761   3.4506   3.6510
     3.8896   4.1643   6.6333   6.6923   6.7064   6.7124   7.0852   7.1813
     7.1843   7.2386

          k =-1.0162-0.2579 0.1485 ( 36506 PWs)   bands (ev):

   -44.1377 -44.1377 -22.2457 -22.2457 -22.2339 -22.2339 -22.0663 -22.0663
    -6.7352  -6.7206  -6.1764  -6.1689  -6.0877  -6.0834  -5.2402  -5.2399
    -4.4662  -4.4463  -0.1869  -0.1807   0.4219   0.4296   1.0064   1.0186
     1.4611   1.5929   2.0426   2.1608   2.3572   2.3960   2.6682   2.6783
     2.9318   3.0467   3.0853   3.1993   3.5475   3.5633   3.5985   3.7307
     4.0539   4.1991   6.1668   6.1869   6.5440   6.6208   7.1867   7.1988
     7.3960   7.4614

          k =-1.0162-0.2579-0.2971 ( 36528 PWs)   bands (ev):

   -44.1377 -44.1377 -22.2457 -22.2457 -22.2339 -22.2339 -22.0663 -22.0663
    -6.7265  -6.7265  -6.1895  -6.1895  -6.0699  -6.0699  -5.2381  -5.2381
    -4.4589  -4.4589  -0.2462  -0.2462   0.6259   0.6259   0.9687   0.9687
     1.5112   1.5112   1.8725   1.8725   2.3594   2.3594   2.7629   2.7629
     2.8531   2.8531   3.1802   3.1802   3.6357   3.6357   3.7976   3.7976
     4.3190   4.3190   5.7790   5.7790   6.4902   6.4902   7.2092   7.2092
     7.5229   7.5229

          k = 0.5081 0.0000 0.0000 ( 36503 PWs)   bands (ev):

   -44.1390 -44.1390 -22.2525 -22.2525 -22.2013 -22.2012 -22.0701 -22.0700
    -7.5833  -7.3335  -6.9039  -6.7480  -5.9393  -5.2513  -5.0173  -4.6450
    -4.6114  -4.4656   0.1935   0.5316   0.6658   1.1654   1.1683   1.2432
     1.6277   1.6999   1.8440   2.0967   2.1505   2.3226   2.5131   3.4042
     3.5387   3.5434   3.5873   3.5881   3.7807   3.9095   3.9514   4.2411
     4.3457   4.9321   5.7388   6.0967   6.2501   6.5657   6.5780   7.0471
     7.4572   7.5792

          k = 0.5081 0.0000 0.1485 ( 36453 PWs)   bands (ev):

   -44.1390 -44.1390 -22.2525 -22.2525 -22.2013 -22.2012 -22.0701 -22.0700
    -7.5562  -7.3855  -6.8654  -6.7616  -5.8735  -5.4406  -4.8652  -4.6375
    -4.6214  -4.4894   0.2344   0.5226   0.7650   0.9317   1.2359   1.2567
     1.3736   1.5494   2.0072   2.1059   2.3474   2.4352   2.8354   3.4110
     3.4686   3.4794   3.5200   3.6556   3.7314   3.8361   3.8405   4.2928
     4.3049   4.4652   6.1917   6.2505   6.4129   6.5575   6.6420   6.9111
     7.3121   7.5351

          k = 0.5081 0.0000-0.2971 ( 36452 PWs)   bands (ev):

   -44.1390 -44.1390 -22.2525 -22.2525 -22.2012 -22.2012 -22.0701 -22.0701
    -7.4816  -7.4816  -6.8029  -6.8029  -5.6913  -5.6913  -4.7156  -4.7156
    -4.5557  -4.5557   0.3730   0.3730   0.9905   0.9905   1.0244   1.0244
     1.4107   1.4107   2.0590   2.0590   2.6665   2.6665   3.1772   3.1772
     3.4036   3.4036   3.5768   3.5768   3.7683   3.7683   3.8673   3.8673
     4.3444   4.3444   6.4566   6.4566   6.5316   6.5316   6.8871   6.8871
     7.1980   7.1980

          k = 0.7622 0.0645 0.0000 ( 36505 PWs)   bands (ev):

   -44.1381 -44.1381 -22.2477 -22.2477 -22.2243 -22.2243 -22.0674 -22.0674
    -7.0612  -6.7870  -6.7527  -6.5791  -5.7344  -5.4587  -5.1702  -5.1356
    -4.5148  -4.4994  -0.1053   0.0168   0.3535   0.9514   0.9849   1.3009
     1.4523   1.5636   1.9636   2.1915   2.2500   2.2636   2.3731   2.7789
     2.9401   3.3046   3.3672   3.5165   3.5507   3.6558   3.6979   3.7850
     3.8326   4.6014   6.0493   6.3840   6.4976   6.8979   6.9515   6.9588
     7.3721   7.6647

          k = 0.7622 0.0645 0.1485 ( 36509 PWs)   bands (ev):

   -44.1381 -44.1381 -22.2477 -22.2477 -22.2243 -22.2243 -22.0674 -22.0674
    -7.0373  -6.8742  -6.6825  -6.5903  -5.6920  -5.4959  -5.1697  -5.1434
    -4.5101  -4.4995  -0.0825   0.1575   0.2431   0.8225   0.9941   1.2552
     1.4664   1.6062   1.9782   2.0074   2.0665   2.6029   2.6919   2.8774
     2.8987   3.0580   3.3168   3.3794   3.5616   3.6030   3.6764   3.9667
     3.9817   4.4720   5.8924   6.3809   6.7242   6.8390   6.9854   7.0593
     7.1160   7.6599

          k = 0.7622 0.0645-0.2971 ( 36472 PWs)   bands (ev):

   -44.1381 -44.1381 -22.2477 -22.2477 -22.2243 -22.2243 -22.0674 -22.0674
    -6.9701  -6.9701  -6.6241  -6.6241  -5.5917  -5.5917  -5.1597  -5.1597
    -4.5026  -4.5026   0.0455   0.0455   0.4768   0.4768   1.1023   1.1023
     1.5543   1.5543   1.9543   1.9543   2.4003   2.4003   2.8393   2.8393
     2.9555   2.9555   3.3418   3.3418   3.5947   3.5947   3.9317   3.9317
     4.0687   4.0687   6.3056   6.3056   6.4960   6.4960   7.0052   7.0052
     7.5392   7.5392

          k = 1.0162 0.1290 0.0000 ( 36514 PWs)   bands (ev):

   -44.1377 -44.1377 -22.2457 -22.2457 -22.2339 -22.2339 -22.0663 -22.0663
    -6.7395  -6.7190  -6.1489  -6.1380  -6.1163  -6.1108  -5.2422  -5.2417
    -4.4677  -4.4395  -0.0970  -0.0651   0.2162   0.2443   1.0035   1.0279
     1.4737   1.6536   2.2197   2.3910   2.4051   2.4220   2.7813   2.8174
     2.8351   2.8724   3.2102   3.2231   3.2950   3.3625   3.4989   3.6321
     3.8736   4.1799   6.6277   6.6778   6.7146   6.7271   7.1083   7.1817
     7.1863   7.2203

          k = 1.0162 0.1290 0.1485 ( 36524 PWs)   bands (ev):

   -44.1377 -44.1377 -22.2457 -22.2457 -22.2339 -22.2339 -22.0663 -22.0663
    -6.7352  -6.7205  -6.1763  -6.1689  -6.0877  -6.0834  -5.2403  -5.2399
    -4.4662  -4.4463  -0.1892  -0.1786   0.4232   0.4289   1.0061   1.0191
     1.4671   1.5868   2.0532   2.1436   2.3594   2.3935   2.6375   2.7153
     2.9350   3.0593   3.0817   3.1894   3.5197   3.5714   3.6270   3.7234
     4.0322   4.2184   6.1612   6.1971   6.5405   6.6233   7.1901   7.1985
     7.4061   7.4527

          k = 1.0162 0.1290-0.2971 ( 36516 PWs)   bands (ev):

   -44.1377 -44.1377 -22.2457 -22.2457 -22.2339 -22.2339 -22.0663 -22.0663
    -6.7265  -6.7265  -6.1895  -6.1895  -6.0699  -6.0699  -5.2381  -5.2381
    -4.4589  -4.4589  -0.2463  -0.2463   0.6263   0.6263   0.9685   0.9685
     1.5124   1.5124   1.8733   1.8733   2.3522   2.3522   2.7446   2.7446
     2.8882   2.8882   3.1675   3.1675   3.6378   3.6378   3.7961   3.7961
     4.3195   4.3195   5.7816   5.7816   6.4895   6.4895   7.2103   7.2103
     7.5241   7.5241

          k =-0.7622-0.3224 0.0000 ( 36511 PWs)   bands (ev):

   -44.1381 -44.1381 -22.2477 -22.2477 -22.2243 -22.2243 -22.0674 -22.0674
    -7.0445  -6.7844  -6.7597  -6.5919  -5.7338  -5.4647  -5.1691  -5.1379
    -4.5334  -4.4788  -0.1273   0.0241   0.3268   0.9200   0.9767   1.2708
     1.5037   1.6662   2.0722   2.1435   2.2264   2.2950   2.4587   2.8398
     2.9613   3.2157   3.3394   3.4772   3.5050   3.6279   3.6768   3.7393
     3.9395   4.5281   6.0558   6.4202   6.4942   6.8202   6.9671   7.0585
     7.3337   7.5958

          k =-0.7622-0.3224 0.1485 ( 36492 PWs)   bands (ev):

   -44.1381 -44.1381 -22.2477 -22.2477 -22.2243 -22.2243 -22.0674 -22.0674
    -7.0215  -6.8672  -6.6933  -6.6038  -5.6909  -5.4989  -5.1705  -5.1458
    -4.5231  -4.4851  -0.1024   0.1644   0.2229   0.8461   0.9364   1.2223
     1.5270   1.6184   1.9720   2.1370   2.1907   2.5933   2.6766   2.9051
     2.9286   3.0711   3.2249   3.3525   3.4745   3.5910   3.7436   3.8790
     3.9938   4.4836   5.8355   6.4399   6.6785   6.8337   6.9766   7.0691
     7.1700   7.5915

          k =-0.7622-0.3224-0.2971 ( 36508 PWs)   bands (ev):

   -44.1381 -44.1381 -22.2477 -22.2477 -22.2243 -22.2243 -22.0674 -22.0674
    -6.9574  -6.9574  -6.6381  -6.6381  -5.5911  -5.5911  -5.1622  -5.1622
    -4.5021  -4.5021   0.0257   0.0257   0.4936   0.4936   1.0572   1.0572
     1.5682   1.5682   2.0700   2.0700   2.4415   2.4415   2.8308   2.8308
     3.0018   3.0018   3.2130   3.2130   3.5950   3.5950   3.9155   3.9155
     4.0853   4.0853   6.2451   6.2451   6.4953   6.4953   7.0854   7.0854
     7.4627   7.4627

          k =-0.5081-0.2579 0.0000 ( 36480 PWs)   bands (ev):

   -44.1390 -44.1390 -22.2525 -22.2525 -22.2013 -22.2012 -22.0701 -22.0700
    -7.5739  -7.3318  -6.9026  -6.7551  -5.9503  -5.2523  -5.0262  -4.6605
    -4.5917  -4.4673   0.1770   0.5453   0.6710   1.1128   1.1827   1.4161
     1.6423   1.7331   1.8914   2.0785   2.1482   2.3715   2.5058   3.3957
     3.4318   3.5206   3.5570   3.6574   3.7200   3.7619   4.0036   4.1198
     4.3338   4.9539   5.7205   6.1228   6.1892   6.6989   6.7533   6.9238
     7.4183   7.5128

          k =-0.5081-0.2579 0.1485 ( 36485 PWs)   bands (ev):

   -44.1390 -44.1390 -22.2525 -22.2525 -22.2013 -22.2012 -22.0701 -22.0700
    -7.5473  -7.3814  -6.8675  -6.7688  -5.8821  -5.4424  -4.8781  -4.6338
    -4.6236  -4.4845   0.2237   0.5440   0.7598   0.9131   1.1967   1.3263
     1.4966   1.6348   2.0018   2.0716   2.3485   2.5084   2.8386   3.3209
     3.4460   3.4972   3.5184   3.6288   3.6379   3.7643   3.8877   4.1607
     4.2647   4.5013   6.2002   6.2380   6.3530   6.7018   6.7827   6.8070
     7.2480   7.4957

          k =-0.5081-0.2579-0.2971 ( 36478 PWs)   bands (ev):

   -44.1390 -44.1390 -22.2525 -22.2525 -22.2012 -22.2012 -22.0701 -22.0701
    -7.4744  -7.4744  -6.8090  -6.8090  -5.6957  -5.6957  -4.7278  -4.7278
    -4.5469  -4.5469   0.3765   0.3765   0.9834   0.9834   1.0144   1.0144
     1.5383   1.5383   2.0419   2.0419   2.7052   2.7052   3.1669   3.1669
     3.3785   3.3785   3.5346   3.5346   3.6968   3.6968   3.8885   3.8885
     4.2822   4.2822   6.4070   6.4070   6.6452   6.6452   6.8285   6.8285
     7.2028   7.2028

          k =-0.2541-0.1934 0.0000 ( 36410 PWs)   bands (ev):

   -44.1399 -44.1399 -22.2572 -22.2572 -22.1781 -22.1781 -22.0728 -22.0727
    -7.9315  -7.6808  -7.0577  -6.8762  -6.1320  -5.3689  -4.8528  -4.7698
    -4.7017  -3.9696   0.3804   0.8906   1.0003   1.0700   1.2849   1.5111
     1.6399   1.7406   1.8267   2.5522   2.6016   3.2278   3.3004   3.6807
     3.7249   3.7288   3.8359   3.8707   3.9101   4.1935   4.3154   4.3361
     4.3603   4.6163   5.9438   6.0165   6.2570   6.5442   6.5893   6.7206
     7.0060   7.1301

          k =-0.2541-0.1934 0.1485 ( 36427 PWs)   bands (ev):

   -44.1399 -44.1399 -22.2572 -22.2572 -22.1781 -22.1781 -22.0728 -22.0727
    -7.9035  -7.7308  -7.0157  -6.8928  -6.0615  -5.5701  -4.7873  -4.7167
    -4.6085  -4.0573   0.4429   0.8777   0.9353   1.0499   1.2389   1.3072
     1.7392   1.8218   2.1693   2.5512   2.5866   2.9453   3.4070   3.4434
     3.5415   3.7300   3.8298   3.9051   4.0033   4.1631   4.3346   4.3456
     4.6682   4.7865   5.8673   6.0079   6.1414   6.3182   6.4186   6.7792
     7.1731   7.2569

          k =-0.2541-0.1934-0.2971 ( 36422 PWs)   bands (ev):

   -44.1399 -44.1399 -22.2572 -22.2572 -22.1781 -22.1781 -22.0728 -22.0728
    -7.8270  -7.8270  -6.9429  -6.9429  -5.8588  -5.8588  -4.7501  -4.7501
    -4.2948  -4.2948   0.6247   0.6247   1.0533   1.0533   1.1517   1.1517
     1.9030   1.9030   2.4833   2.4833   2.6578   2.6578   3.2537   3.2537
     3.6640   3.6640   3.8360   3.8360   4.1227   4.1227   4.3457   4.3457
     4.9760   4.9760   5.7628   5.7628   6.1815   6.1815   6.5092   6.5092
     7.3655   7.3655

          k = 0.0000-0.1290 0.0000 ( 36417 PWs)   bands (ev):

   -44.1402 -44.1402 -22.2592 -22.2591 -22.1685 -22.1685 -22.0740 -22.0738
    -8.0561  -7.8004  -7.1257  -6.9234  -6.1880  -5.4157  -4.8255  -4.8018
    -4.7482  -3.8006   0.2899   0.7713   0.8480   1.1554   1.3701   1.5670
     2.0443   2.2170   2.2825   2.7897   2.9235   3.0009   3.3164   3.3672
     3.7467   3.8736   3.9159   4.0126   4.2863   4.3138   4.3687   4.7098
     4.7361   5.3728   5.6570   5.8983   5.9497   5.9728   6.0506   6.7924
     7.0453   7.2297

          k = 0.0000-0.1290 0.1485 ( 36419 PWs)   bands (ev):

   -44.1402 -44.1402 -22.2592 -22.2591 -22.1685 -22.1685 -22.0739 -22.0738
    -8.0275  -7.8513  -7.0791  -6.9417  -6.1190  -5.6214  -4.8121  -4.7621
    -4.5692  -3.9121   0.3644   0.8800   0.9197   0.9677   1.1219   1.8798
     2.0440   2.0645   2.1846   2.8173   2.9097   3.0781   3.3775   3.4715
     3.7527   3.8966   3.9278   3.9989   4.2396   4.3159   4.3828   4.7056
     4.7152   4.9138   5.8535   5.9206   5.9486   6.1315   6.3903   6.6236
     6.8609   7.1180

          k = 0.0000-0.1290-0.2971 ( 36464 PWs)   bands (ev):

   -44.1403 -44.1403 -22.2591 -22.2591 -22.1685 -22.1685 -22.0739 -22.0739
    -7.9495  -7.9495  -6.9975  -6.9975  -5.9165  -5.9165  -4.7870  -4.7870
    -4.2025  -4.2025   0.5931   0.5931   0.9824   0.9824   1.3498   1.3498
     2.1189   2.1189   2.6025   2.6025   2.8699   2.8699   3.5669   3.5669
     3.8567   3.8567   4.0726   4.0726   4.2411   4.2411   4.4092   4.4092
     4.7012   4.7012   5.9194   5.9194   6.2380   6.2380   6.4879   6.4879
     6.8511   6.8511

          k = 1.0162 0.0000 0.0000 ( 36499 PWs)   bands (ev):

   -44.1377 -44.1377 -22.2457 -22.2457 -22.2339 -22.2339 -22.0663 -22.0663
    -6.7395  -6.7190  -6.1488  -6.1382  -6.1163  -6.1108  -5.2422  -5.2417
    -4.4677  -4.4395  -0.1012  -0.0609   0.2136   0.2469   0.9995   1.0328
     1.4812   1.6429   2.2167   2.3981   2.4064   2.4146   2.7721   2.8208
     2.8273   2.9017   3.2079   3.2357   3.2713   3.3430   3.5723   3.5817
     3.8593   4.1940   6.6229   6.6692   6.7221   6.7360   7.1476   7.1823
     7.1857   7.1882

          k = 1.0162 0.0000 0.1485 ( 36485 PWs)   bands (ev):

   -44.1377 -44.1377 -22.2457 -22.2457 -22.2339 -22.2339 -22.0663 -22.0663
    -6.7352  -6.7205  -6.1763  -6.1690  -6.0877  -6.0835  -5.2403  -5.2399
    -4.4662  -4.4463  -0.1909  -0.1773   0.4253   0.4274   1.0060   1.0194
     1.4739   1.5799   2.0693   2.1212   2.3643   2.3881   2.6263   2.7313
     2.9427   3.0640   3.0858   3.1769   3.5049   3.5720   3.6545   3.7117
     4.0140   4.2342   6.1582   6.2047   6.5373   6.6256   7.1953   7.1964
     7.4295   7.4307

          k = 1.0162 0.0000-0.2971 ( 36514 PWs)   bands (ev):

   -44.1377 -44.1377 -22.2457 -22.2457 -22.2339 -22.2339 -22.0663 -22.0663
    -6.7265  -6.7265  -6.1895  -6.1895  -6.0699  -6.0699  -5.2381  -5.2381
    -4.4589  -4.4589  -0.2464  -0.2464   0.6267   0.6267   0.9683   0.9683
     1.5136   1.5136   1.8741   1.8741   2.3450   2.3450   2.7327   2.7327
     2.9188   2.9188   3.1529   3.1529   3.6398   3.6398   3.7947   3.7947
     4.3201   4.3201   5.7843   5.7843   6.4888   6.4888   7.2114   7.2114
     7.5252   7.5252

          k = 1.2703 0.0645 0.0000 ( 36468 PWs)   bands (ev):

   -44.1381 -44.1381 -22.2477 -22.2477 -22.2243 -22.2243 -22.0674 -22.0674
    -7.0369  -6.7833  -6.7634  -6.5969  -5.7336  -5.4672  -5.1685  -5.1390
    -4.5377  -4.4737  -0.1362   0.0274   0.3156   0.9008   0.9871   1.2601
     1.5064   1.7146   2.1283   2.1525   2.2335   2.3104   2.4254   2.8686
     2.9645   3.1852   3.3722   3.4799   3.5040   3.5968   3.6064   3.6965
     4.0312   4.4842   6.0585   6.4176   6.5243   6.7607   6.9990   7.1212
     7.2982   7.5841

          k = 1.2703 0.0645 0.1485 ( 36490 PWs)   bands (ev):

   -44.1381 -44.1381 -22.2477 -22.2477 -22.2243 -22.2243 -22.0674 -22.0674
    -7.0144  -6.8643  -6.6983  -6.6094  -5.6905  -5.5001  -5.1708  -5.1469
    -4.5260  -4.4815  -0.1105   0.1691   0.2128   0.8539   0.9203   1.2100
     1.5398   1.6311   1.9701   2.2025   2.2442   2.5982   2.6371   2.9196
     2.9358   3.1008   3.1966   3.3225   3.4759   3.5427   3.7652   3.8336
     4.0187   4.4862   5.8143   6.4706   6.6490   6.8301   6.9561   7.1266
     7.1775   7.5475

          k = 1.2703 0.0645-0.2971 ( 36480 PWs)   bands (ev):

   -44.1381 -44.1381 -22.2477 -22.2477 -22.2243 -22.2243 -22.0674 -22.0674
    -6.9518  -6.9518  -6.6442  -6.6442  -5.5909  -5.5909  -5.1633  -5.1633
    -4.5020  -4.5020   0.0178   0.0178   0.4999   0.4999   1.0425   1.0425
     1.5744   1.5744   2.1036   2.1036   2.4786   2.4786   2.8289   2.8289
     3.0212   3.0212   3.1566   3.1566   3.5893   3.5893   3.8877   3.8877
     4.1114   4.1114   6.2233   6.2233   6.4938   6.4938   7.1264   7.1264
     7.4183   7.4183

          k =-0.5081-0.3869 0.0000 ( 36463 PWs)   bands (ev):

   -44.1390 -44.1390 -22.2525 -22.2525 -22.2013 -22.2012 -22.0701 -22.0700
    -7.5670  -7.3306  -6.9026  -6.7592  -5.9583  -5.2531  -5.0325  -4.6662
    -4.5829  -4.4684   0.1657   0.5564   0.6676   1.1079   1.1926   1.5385
     1.6517   1.7488   1.9271   2.0586   2.1740   2.3737   2.4964   3.2880
     3.4593   3.5105   3.5353   3.6422   3.7015   3.7269   3.9377   4.1182
     4.3212   4.9657   5.7107   6.0363   6.2563   6.8055   6.8382   6.8831
     7.3594   7.4864

          k =-0.5081-0.3869 0.1485 ( 36477 PWs)   bands (ev):

   -44.1390 -44.1390 -22.2525 -22.2525 -22.2013 -22.2012 -22.0701 -22.0700
    -7.5408  -7.3785  -6.8698  -6.7733  -5.8883  -5.4437  -4.8869  -4.6308
    -4.6257  -4.4812   0.2164   0.5585   0.7550   0.9000   1.1972   1.3455
     1.6122   1.7075   1.9783   2.0480   2.3752   2.5234   2.8400   3.2291
     3.4618   3.4681   3.5070   3.5583   3.6502   3.7442   3.8972   4.1161
     4.2151   4.5205   6.1518   6.2703   6.3268   6.7190   6.8057   6.9179
     7.1815   7.4852

          k =-0.5081-0.3869-0.2971 ( 36492 PWs)   bands (ev):

   -44.1390 -44.1390 -22.2525 -22.2525 -22.2012 -22.2012 -22.0701 -22.0701
    -7.4692  -7.4692  -6.8135  -6.8135  -5.6988  -5.6988  -4.7358  -4.7358
    -4.5413  -4.5413   0.3787   0.3787   0.9769   0.9769   1.0115   1.0115
     1.6490   1.6490   2.0134   2.0134   2.7468   2.7468   3.1106   3.1106
     3.3683   3.3683   3.4969   3.4969   3.6815   3.6815   3.8968   3.8968
     4.2441   4.2441   6.3745   6.3745   6.6901   6.6901   6.8098   6.8098
     7.2260   7.2261

          k =-0.2541-0.3224 0.0000 ( 36485 PWs)   bands (ev):

   -44.1399 -44.1399 -22.2572 -22.2572 -22.1781 -22.1781 -22.0728 -22.0727
    -7.9250  -7.6796  -7.0521  -6.8796  -6.1492  -5.3732  -4.8698  -4.7689
    -4.6904  -3.9708   0.4057   0.9005   1.0607   1.1172   1.3330   1.5823
     1.6772   1.7423   1.8633   2.4835   2.5585   3.2227   3.3981   3.5393
     3.6054   3.7042   3.7107   3.8489   3.9538   4.1357   4.1759   4.2815
     4.3172   4.6530   6.0342   6.0530   6.3243   6.5611   6.6050   6.7921
     6.9279   7.0530

          k =-0.2541-0.3224 0.1485 ( 36445 PWs)   bands (ev):

   -44.1399 -44.1399 -22.2572 -22.2572 -22.1781 -22.1781 -22.0728 -22.0727
    -7.8973  -7.7280  -7.0132  -6.8961  -6.0759  -5.5751  -4.8062  -4.7104
    -4.6022  -4.0574   0.4671   0.8835   0.9471   1.1695   1.3098   1.3353
     1.7602   1.8281   2.2190   2.4866   2.5477   2.9478   3.4102   3.4982
     3.5301   3.5634   3.6566   3.9028   3.9310   4.1047   4.2495   4.3058
     4.6727   4.7957   5.8630   6.0388   6.1439   6.3695   6.5166   6.7652
     7.1409   7.2401

          k =-0.2541-0.3224-0.2971 ( 36442 PWs)   bands (ev):

   -44.1399 -44.1399 -22.2572 -22.2572 -22.1781 -22.1781 -22.0728 -22.0728
    -7.8220  -7.8220  -6.9445  -6.9445  -5.8677  -5.8677  -4.7557  -4.7557
    -4.2925  -4.2925   0.6439   0.6439   1.0783   1.0783   1.2413   1.2413
     1.9141   1.9141   2.4639   2.4639   2.6569   2.6569   3.2661   3.2661
     3.5303   3.5303   3.8025   3.8025   4.0651   4.0651   4.2850   4.2850
     4.9957   4.9957   5.7293   5.7293   6.1864   6.1864   6.5884   6.5884
     7.3521   7.3521

          k = 0.0000-0.2579 0.0000 ( 36445 PWs)   bands (ev):

   -44.1403 -44.1402 -22.2592 -22.2591 -22.1685 -22.1685 -22.0740 -22.0738
    -8.0502  -7.7993  -7.1184  -6.9264  -6.2068  -5.4212  -4.8530  -4.7932
    -4.7342  -3.8017   0.3231   0.7808   0.9572   1.2064   1.3964   1.6333
     2.0444   2.2155   2.2800   2.8073   2.9296   3.0161   3.2853   3.4737
     3.5302   3.6577   3.8462   3.9555   4.1577   4.2369   4.3143   4.7066
     4.7077   5.3340   5.7069   5.9594   5.9917   6.0305   6.1365   6.7968
     7.0453   7.1285

          k = 0.0000-0.2579 0.1485 ( 36452 PWs)   bands (ev):

   -44.1403 -44.1402 -22.2592 -22.2591 -22.1685 -22.1685 -22.0739 -22.0738
    -8.0220  -7.8488  -7.0748  -6.9444  -6.1350  -5.6277  -4.8297  -4.7545
    -4.5654  -3.9124   0.3968   0.9292   0.9713   1.0270   1.1766   1.8919
     2.0645   2.0865   2.1837   2.8330   2.9173   3.0832   3.3343   3.4748
     3.6549   3.6731   3.9020   3.9082   4.1907   4.2308   4.2608   4.6962
     4.7038   4.9073   5.8954   5.9765   6.0159   6.1459   6.4159   6.6209
     6.8634   7.0534

          k = 0.0000-0.2579-0.2971 ( 36454 PWs)   bands (ev):

   -44.1402 -44.1402 -22.2591 -22.2591 -22.1685 -22.1685 -22.0739 -22.0739
    -7.9450  -7.9450  -6.9979  -6.9979  -5.9269  -5.9269  -4.7917  -4.7917
    -4.2011  -4.2011   0.6279   0.6279   1.0647   1.0647   1.3650   1.3650
     2.1187   2.1187   2.6309   2.6309   2.8814   2.8814   3.4576   3.4576
     3.7782   3.7782   4.0525   4.0525   4.1194   4.1194   4.3717   4.3717
     4.6950   4.6950   5.9564   5.9564   6.2697   6.2697   6.4957   6.4957
     6.8231   6.8231

          k = 1.5243 0.0000 0.0000 ( 36439 PWs)   bands (ev):

   -44.1390 -44.1390 -22.2525 -22.2525 -22.2013 -22.2012 -22.0701 -22.0700
    -7.5641  -7.3301  -6.9029  -6.7607  -5.9616  -5.2533  -5.0352  -4.6681
    -4.5799  -4.4689   0.1612   0.5617   0.6640   1.1087   1.1966   1.6060
     1.6752   1.7167   1.9426   2.0493   2.2160   2.3452   2.4914   3.2485
     3.4662   3.4748   3.5412   3.6403   3.7045   3.7484   3.8574   4.1410
     4.3154   4.9695   5.7070   5.9991   6.2875   6.8022   6.8551   6.9439
     7.3180   7.5271

          k = 1.5243 0.0000 0.1485 ( 36476 PWs)   bands (ev):

   -44.1390 -44.1390 -22.2525 -22.2525 -22.2013 -22.2012 -22.0701 -22.0700
    -7.5381  -7.3773  -6.8709  -6.7750  -5.8909  -5.4442  -4.8904  -4.6291
    -4.6271  -4.4799   0.2135   0.5644   0.7526   0.8946   1.1990   1.3521
     1.6930   1.7179   1.9720   2.0246   2.4079   2.5051   2.8396   3.1946
     3.4122   3.4777   3.5075   3.5615   3.6682   3.7290   3.8725   4.1378
     4.1743   4.5281   6.1266   6.2857   6.3203   6.6895   6.8444   6.9886
     7.1363   7.5034

          k = 1.5243 0.0000-0.2971 ( 36508 PWs)   bands (ev):

   -44.1390 -44.1390 -22.2525 -22.2525 -22.2012 -22.2012 -22.0701 -22.0701
    -7.4671  -7.4670  -6.8154  -6.8154  -5.7000  -5.7000  -4.7390  -4.7390
    -4.5390  -4.5390   0.3796   0.3796   0.9743   0.9743   1.0106   1.0106
     1.7070   1.7070   1.9910   1.9910   2.7719   2.7719   3.0671   3.0671
     3.3696   3.3696   3.4857   3.4857   3.6774   3.6774   3.8969   3.8969
     4.2313   4.2313   6.3613   6.3613   6.6904   6.6904   6.8160   6.8160
     7.2441   7.2441

          k =-0.2541-0.4514 0.0000 ( 36444 PWs)   bands (ev):

   -44.1399 -44.1399 -22.2572 -22.2572 -22.1781 -22.1781 -22.0728 -22.0727
    -7.9202  -7.6788  -7.0488  -6.8812  -6.1618  -5.3761  -4.8815  -4.7659
    -4.6852  -3.9717   0.4174   0.9099   1.0517   1.2404   1.3424   1.6658
     1.7042   1.7419   1.8995   2.4092   2.4865   3.2429   3.3908   3.4714
     3.4733   3.7078   3.7622   3.8492   3.9050   4.0818   4.1044   4.2154
     4.3139   4.6763   6.0717   6.1102   6.3507   6.5749   6.6281   6.8358
     6.8377   7.0226

          k =-0.2541-0.4514 0.1485 ( 36461 PWs)   bands (ev):

   -44.1399 -44.1399 -22.2572 -22.2572 -22.1781 -22.1781 -22.0728 -22.0727
    -7.8929  -7.7260  -7.0118  -6.8979  -6.0862  -5.5785  -4.8179  -4.7071
    -4.5983  -4.0574   0.4783   0.8904   0.9508   1.2748   1.3390   1.3946
     1.7900   1.8315   2.2700   2.4154   2.4707   2.9659   3.3458   3.3919
     3.5104   3.5404   3.7374   3.8729   3.9042   3.9711   4.2289   4.2792
     4.6813   4.7996   5.8605   6.0561   6.1571   6.3748   6.5835   6.7416
     7.1366   7.2263

          k =-0.2541-0.4514-0.2971 ( 36490 PWs)   bands (ev):

   -44.1399 -44.1399 -22.2572 -22.2572 -22.1781 -22.1781 -22.0728 -22.0728
    -7.8185  -7.8185  -6.9458  -6.9458  -5.8739  -5.8739  -4.7597  -4.7597
    -4.2907  -4.2907   0.6528   0.6528   1.0878   1.0878   1.3361   1.3361
     1.9268   1.9268   2.4226   2.4226   2.6590   2.6590   3.2554   3.2554
     3.4176   3.4176   3.8547   3.8547   3.9881   3.9881   4.2547   4.2547
     5.0095   5.0095   5.7091   5.7091   6.1760   6.1760   6.6383   6.6383
     7.3463   7.3463

          k = 0.0000-0.3869 0.0000 ( 36477 PWs)   bands (ev):

   -44.1403 -44.1402 -22.2592 -22.2591 -22.1685 -22.1685 -22.0740 -22.0738
    -8.0442  -7.7982  -7.1117  -6.9284  -6.2261  -5.4266  -4.8743  -4.7834
    -4.7277  -3.8028   0.3453   0.7913   1.1051   1.2684   1.4210   1.7064
     2.0444   2.2141   2.2794   2.8263   2.9353   3.0443   3.1584   3.2322
     3.5238   3.6307   3.8183   3.9561   4.0170   4.0609   4.3146   4.6773
     4.7057   5.3105   5.7571   6.0108   6.0345   6.0814   6.1941   6.7483
     7.0452   7.0670

          k = 0.0000-0.3869 0.1485 ( 36452 PWs)   bands (ev):

   -44.1403 -44.1402 -22.2592 -22.2591 -22.1685 -22.1685 -22.0739 -22.0738
    -8.0164  -7.8463  -7.0710  -6.9463  -6.1513  -5.6338  -4.8444  -4.7494
    -4.5621  -3.9126   0.4173   0.9488   1.0073   1.1675   1.2517   1.9063
     2.0645   2.1313   2.1828   2.8497   2.9247   3.0375   3.1778   3.3335
     3.5224   3.7396   3.8758   3.9244   4.0610   4.1019   4.2212   4.6795
     4.7008   4.9061   5.9457   6.0222   6.0515   6.1606   6.4300   6.5859
     6.8660   7.0039

          k = 0.0000-0.3869-0.2971 ( 36454 PWs)   bands (ev):

   -44.1402 -44.1402 -22.2591 -22.2591 -22.1685 -22.1685 -22.0739 -22.0739
    -7.9405  -7.9405  -6.9983  -6.9983  -5.9372  -5.9372  -4.7964  -4.7964
    -4.1995  -4.1995   0.6485   0.6485   1.1836   1.1836   1.3827   1.3827
     2.1184   2.1184   2.6546   2.6546   2.8932   2.8932   3.2200   3.2200
     3.8259   3.8259   4.0103   4.0103   4.0317   4.0317   4.3370   4.3370
     4.6892   4.6892   5.9699   5.9699   6.2982   6.2982   6.5037   6.5037
     6.7857   6.7857

          k =-2.0325 0.0000 0.0000 ( 36452 PWs)   bands (ev):

   -44.1403 -44.1402 -22.2592 -22.2591 -22.1685 -22.1685 -22.0740 -22.0738
    -8.0417  -7.7978  -7.1092  -6.9288  -6.2343  -5.4288  -4.8821  -4.7788
    -4.7266  -3.8033   0.3513   0.7960   1.2307   1.2411   1.4306   1.7504
     2.0444   2.2136   2.2799   2.8347   2.9373   3.0489   3.0606   3.1135
     3.5073   3.7860   3.8065   3.8701   3.9582   3.9835   4.3148   4.6652
     4.7049   5.3031   5.7776   6.0188   6.0740   6.0973   6.2121   6.7057
     7.0451   7.0559

          k =-2.0325 0.0000 0.1485 ( 36456 PWs)   bands (ev):

   -44.1403 -44.1402 -22.2592 -22.2591 -22.1685 -22.1685 -22.0739 -22.0738
    -8.0140  -7.8453  -7.0697  -6.9468  -6.1582  -5.6363  -4.8501  -4.7477
    -4.5608  -3.9127   0.4224   0.9569   1.0204   1.2502   1.2823   1.9129
     2.0645   2.1536   2.1824   2.8570   2.9276   2.9745   3.0593   3.3140
     3.4952   3.8386   3.8647   3.9420   3.9691   4.0136   4.2169   4.6727
     4.6998   4.9061   5.9699   6.0430   6.0573   6.1668   6.4328   6.5596
     6.8671   6.9897

          k =-2.0325 0.0000-0.2971 ( 36460 PWs)   bands (ev):

   -44.1402 -44.1402 -22.2591 -22.2591 -22.1685 -22.1685 -22.0739 -22.0739
    -7.9387  -7.9387  -6.9985  -6.9985  -5.9414  -5.9414  -4.7983  -4.7983
    -4.1989  -4.1989   0.6537   0.6537   1.2456   1.2456   1.3916   1.3916
     2.1183   2.1183   2.6587   2.6587   2.8983   2.8983   3.1109   3.1109
     3.8965   3.8965   3.9249   3.9249   4.0229   4.0229   4.3248   4.3248
     4.6870   4.6870   5.9711   5.9711   6.3085   6.3085   6.5071   6.5071
     6.7691   6.7691

     the Fermi energy is     5.5178 ev

!    total energy              =   -4240.94864489 Ry

     total all-electron energy =   -150287.642340 Ry
     estimated scf accuracy    <          1.6E-11 Ry
     smearing contrib. (-TS)   =       0.00000002 Ry
     internal energy E=F+TS    =   -4240.94864492 Ry

     The total energy is F=E-TS. E is the sum of the following terms:
     one-electron contribution =    -167.83641230 Ry
     hartree contribution      =     117.38413960 Ry
     xc contribution           =    -201.55788980 Ry
     ewald contribution        =    -221.40878165 Ry
     one-center paw contrib.   =   -3767.52970076 Ry

     convergence has been achieved in  18 iterations

     Forces acting on atoms (cartesian axes, Ry/au):

     atom    1 type  1   force =     0.00000000    0.00969364    0.00000000
     atom    2 type  1   force =     0.00000000   -0.00969364    0.00000000
     atom    3 type  2   force =     0.00000000   -0.00004307    0.00000000
     atom    4 type  2   force =     0.00000000    0.00004307    0.00000000
     atom    5 type  2   force =     0.00000000   -0.00222573   -0.00103926
     atom    6 type  2   force =     0.00000000    0.00222573    0.00103926
     atom    7 type  2   force =     0.00000000   -0.00222573    0.00103926
     atom    8 type  2   force =     0.00000000    0.00222573   -0.00103926
     atom    9 type  2   force =     0.00000000   -0.01620825   -0.01780664
     atom   10 type  2   force =     0.00000000    0.01620825    0.01780664
     atom   11 type  2   force =     0.00000000   -0.01620825    0.01780664
     atom   12 type  2   force =     0.00000000    0.01620825   -0.01780664

     Total force =     0.050311     Total SCF correction =     0.000005


     Computing stress (Cartesian axis) and pressure

          total   stress  (Ry/bohr**3)                   (kbar)     P=        4.12
   0.00002773   0.00000000   0.00000000            4.08        0.00        0.00
   0.00000000   0.00001811   0.00000000            0.00        2.66        0.00
   0.00000000   0.00000000   0.00003813            0.00        0.00        5.61

 
     init_run     :     19.53s CPU     20.02s WALL (       1 calls)
     electrons    :    982.24s CPU    992.92s WALL (       1 calls)
     forces       :      7.01s CPU      7.25s WALL (       1 calls)
     stress       :     43.55s CPU     44.14s WALL (       1 calls)

     Called by init_run:
     wfcinit      :     14.98s CPU     15.13s WALL (       1 calls)
     potinit      :      1.41s CPU      1.46s WALL (       1 calls)
     hinit0       :      1.67s CPU      1.72s WALL (       1 calls)

     Called by electrons:
     c_bands      :    811.29s CPU    814.16s WALL (      19 calls)
     sum_band     :    144.42s CPU    148.62s WALL (      19 calls)
     v_of_rho     :      5.79s CPU      6.07s WALL (      19 calls)
     newd         :     14.75s CPU     18.26s WALL (      19 calls)
     PAW_pot      :      6.07s CPU      6.08s WALL (      19 calls)
     mix_rho      :      0.86s CPU      0.88s WALL (      19 calls)

     Called by c_bands:
     init_us_2    :     11.98s CPU     12.04s WALL (    2583 calls)
     cegterg      :    732.91s CPU    735.41s WALL (    1197 calls)

     Called by *egterg:
     cdiaghg      :     26.54s CPU     26.59s WALL (    7918 calls)
     h_psi        :    569.93s CPU    572.33s WALL (    8044 calls)
     s_psi        :     45.29s CPU     45.34s WALL (    8044 calls)
     g_psi        :      1.92s CPU      1.93s WALL (    6784 calls)

     Called by h_psi:
     h_psi:calbec :     38.79s CPU     38.85s WALL (    8044 calls)
     vloc_psi     :    482.97s CPU    485.16s WALL (    8044 calls)
     add_vuspsi   :     45.14s CPU     45.22s WALL (    8044 calls)

     General routines
     calbec       :     51.48s CPU     51.58s WALL (    9556 calls)
     fft          :      3.49s CPU      3.62s WALL (     271 calls)
     ffts         :      0.09s CPU      0.09s WALL (      38 calls)
     fftw         :    441.13s CPU    443.14s WALL (  426332 calls)
     interpolate  :      0.34s CPU      0.34s WALL (      19 calls)
 
     Parallel routines
 
     PWSCF        :  17m32.60s CPU  17m44.65s WALL

 
   This run was terminated on:  15:33: 4  19Nov2021            

=------------------------------------------------------------------------------=
   JOB DONE.
=------------------------------------------------------------------------------=
