
     Program PWSCF v.6.8 starts on 19Nov2021 at 15:15:27 

     This program is part of the open-source Quantum ESPRESSO suite
     for quantum simulation of materials; please cite
         "P. Giannozzi et al., J. Phys.:Condens. Matter 21 395502 (2009);
         "P. Giannozzi et al., J. Phys.:Condens. Matter 29 465901 (2017);
         "P. Giannozzi et al., J. Chem. Phys. 152 154105 (2020);
          URL http://www.quantum-espresso.org", 
     in publications or presentations arising from this work. More details at
     http://www.quantum-espresso.org/quote

     Parallel version (MPI), running on    10 processors

     MPI processes distributed on     1 nodes
     R & G space division:  proc/nbgrp/npool/nimage =      10
     72077 MiB available memory on the printing compute node when the environment starts
 
     Waiting for input...
     Reading input from standard input

     Current dimensions of program PWSCF are:
     Max number of different atomic species (ntypx) = 10
     Max number of k-points (npk) =  40000
     Max angular momentum in pseudopotentials (lmaxx) =  4
     file Zr.pbe-spn-kjpaw_psl.1.0.0.UPF: wavefunction(s)  4S 4P renormalized
     file Te.pbe-n-kjpaw_psl.1.0.0.UPF: wavefunction(s)  5S 5P renormalized
     Message from routine setup:
     using ibrav=0 with symmetry is DISCOURAGED, use correct ibrav instead

     Subspace diagonalization in iterative solution of the eigenvalue problem:
     a serial algorithm will be used

 
     Parallelization info
     --------------------
     sticks:   dense  smooth     PW     G-vecs:    dense   smooth      PW
     Min         734     293     87               115340    29174    4753
     Max         735     295     88               115345    29176    4760
     Sum        7345    2937    873              1153415   291749   47557
 
     Using Slab Decomposition
 


     bravais-lattice index     =            0
     lattice parameter (alat)  =      15.5510  a.u.
     unit-cell volume          =    3018.5011 (a.u.)^3
     number of atoms/cell      =           12
     number of atomic types    =            2
     number of electrons       =        84.00
     number of Kohn-Sham states=           50
     kinetic-energy cutoff     =      80.0000  Ry
     charge density cutoff     =     800.0000  Ry
     scf convergence threshold =      1.0E-10
     mixing beta               =       0.7000
     number of iterations used =            8  plain     mixing
     Exchange-correlation= SLA  PW   PBX  PBC
                           (   1   4   3   4   0   0   0)

     celldm(1)=  15.551040  celldm(2)=   0.000000  celldm(3)=   0.000000
     celldm(4)=   0.000000  celldm(5)=   0.000000  celldm(6)=   0.000000

     crystal axes: (cart. coord. in units of alat)
               a(1) = (   0.246007  -0.969268   0.000000 )  
               a(2) = (   0.246007   0.969268   0.000000 )  
               a(3) = (   0.000000   0.000000   1.683031 )  

     reciprocal axes: (cart. coord. in units 2 pi/alat)
               b(1) = (  2.032465 -0.515853  0.000000 )  
               b(2) = (  2.032465  0.515853  0.000000 )  
               b(3) = (  0.000000  0.000000  0.594166 )  


     PseudoPot. # 1 for Zr read from file:
     pseudo/Zr.pbe-spn-kjpaw_psl.1.0.0.UPF
     MD5 check sum: 02112c41713a0468aff2bb39ef194e36
     Pseudo is Projector augmented-wave + core cor, Zval = 12.0
     Generated using &quot;atomic&quot; code by A. Dal Corso  v.6.2.2
     Shape of augmentation charge: PSQ
     Using radial grid of 1225 points,  6 beta functions with: 
                l(1) =   0
                l(2) =   0
                l(3) =   1
                l(4) =   1
                l(5) =   2
                l(6) =   2
     Q(r) pseudized with 0 coefficients 


     PseudoPot. # 2 for Te read from file:
     pseudo/Te.pbe-n-kjpaw_psl.1.0.0.UPF
     MD5 check sum: 66247bff2bd9dbf220fbb0bf5ab56e9d
     Pseudo is Projector augmented-wave + core cor, Zval =  6.0
     Generated using &quot;atomic&quot; code by A. Dal Corso  v.6.3
     Shape of augmentation charge: PSQ
     Using radial grid of 1245 points,  6 beta functions with: 
                l(1) =   0
                l(2) =   0
                l(3) =   1
                l(4) =   1
                l(5) =   2
                l(6) =   2
     Q(r) pseudized with 0 coefficients 


     atomic species   valence    mass     pseudopotential
        Zr            12.00    91.22000     Zr( 1.00)
        Te             6.00   127.60000     Te( 1.00)

      8 Sym. Ops., with inversion, found ( 4 have fractional translation)



   Cartesian axes

     site n.     atom                  positions (alat units)
         1           Zr  tau(   1) = (   0.0000000   0.6021893   0.4207578  )
         2           Zr  tau(   2) = (   0.2460067   0.3670788   1.2622733  )
         3           Te  tau(   3) = (   0.2460067   0.3341797   0.4207578  )
         4           Te  tau(   4) = (   0.0000000   0.6350884   1.2622733  )
         5           Te  tau(   5) = (   0.2460067   0.8113817   0.2531254  )
         6           Te  tau(   6) = (   0.0000000   0.1578864   1.4299056  )
         7           Te  tau(   7) = (   0.2460067   0.8113817   0.5883901  )
         8           Te  tau(   8) = (   0.0000000   0.1578864   1.0946410  )
         9           Te  tau(   9) = (   0.0000000   0.4208800   0.7365955  )
        10           Te  tau(  10) = (   0.2460067   0.5483882   0.9464356  )
        11           Te  tau(  11) = (   0.0000000   0.4208800   0.1049200  )
        12           Te  tau(  12) = (   0.2460067   0.5483882   1.5781110  )

     number of k points=    63  Methfessel-Paxton smearing, width (Ry)=  0.0030
                       cart. coord. in units 2pi/alat
        k(    1) = (   0.0000000   0.0000000   0.0000000), wk =   0.0078125
        k(    2) = (   0.0000000   0.0000000   0.1485415), wk =   0.0156250
        k(    3) = (   0.0000000   0.0000000  -0.2970830), wk =   0.0078125
        k(    4) = (   0.2540581   0.0644816   0.0000000), wk =   0.0312500
        k(    5) = (   0.2540581   0.0644816   0.1485415), wk =   0.0625000
        k(    6) = (   0.2540581   0.0644816  -0.2970830), wk =   0.0312500
        k(    7) = (   0.5081162   0.1289633   0.0000000), wk =   0.0312500
        k(    8) = (   0.5081162   0.1289633   0.1485415), wk =   0.0625000
        k(    9) = (   0.5081162   0.1289633  -0.2970830), wk =   0.0312500
        k(   10) = (   0.7621743   0.1934449   0.0000000), wk =   0.0312500
        k(   11) = (   0.7621743   0.1934449   0.1485415), wk =   0.0625000
        k(   12) = (   0.7621743   0.1934449  -0.2970830), wk =   0.0312500
        k(   13) = (  -1.0162324  -0.2579266   0.0000000), wk =   0.0156250
        k(   14) = (  -1.0162324  -0.2579266   0.1485415), wk =   0.0312500
        k(   15) = (  -1.0162324  -0.2579266  -0.2970830), wk =   0.0156250
        k(   16) = (   0.5081162   0.0000000   0.0000000), wk =   0.0156250
        k(   17) = (   0.5081162   0.0000000   0.1485415), wk =   0.0312500
        k(   18) = (   0.5081162   0.0000000  -0.2970830), wk =   0.0156250
        k(   19) = (   0.7621743   0.0644816   0.0000000), wk =   0.0312500
        k(   20) = (   0.7621743   0.0644816   0.1485415), wk =   0.0625000
        k(   21) = (   0.7621743   0.0644816  -0.2970830), wk =   0.0312500
        k(   22) = (   1.0162324   0.1289633   0.0000000), wk =   0.0312500
        k(   23) = (   1.0162324   0.1289633   0.1485415), wk =   0.0625000
        k(   24) = (   1.0162324   0.1289633  -0.2970830), wk =   0.0312500
        k(   25) = (  -0.7621743  -0.3224082   0.0000000), wk =   0.0312500
        k(   26) = (  -0.7621743  -0.3224082   0.1485415), wk =   0.0625000
        k(   27) = (  -0.7621743  -0.3224082  -0.2970830), wk =   0.0312500
        k(   28) = (  -0.5081162  -0.2579266   0.0000000), wk =   0.0312500
        k(   29) = (  -0.5081162  -0.2579266   0.1485415), wk =   0.0625000
        k(   30) = (  -0.5081162  -0.2579266  -0.2970830), wk =   0.0312500
        k(   31) = (  -0.2540581  -0.1934449   0.0000000), wk =   0.0312500
        k(   32) = (  -0.2540581  -0.1934449   0.1485415), wk =   0.0625000
        k(   33) = (  -0.2540581  -0.1934449  -0.2970830), wk =   0.0312500
        k(   34) = (   0.0000000  -0.1289633   0.0000000), wk =   0.0156250
        k(   35) = (   0.0000000  -0.1289633   0.1485415), wk =   0.0312500
        k(   36) = (   0.0000000  -0.1289633  -0.2970830), wk =   0.0156250
        k(   37) = (   1.0162324   0.0000000   0.0000000), wk =   0.0156250
        k(   38) = (   1.0162324   0.0000000   0.1485415), wk =   0.0312500
        k(   39) = (   1.0162324   0.0000000  -0.2970830), wk =   0.0156250
        k(   40) = (   1.2702905   0.0644816   0.0000000), wk =   0.0312500
        k(   41) = (   1.2702905   0.0644816   0.1485415), wk =   0.0625000
        k(   42) = (   1.2702905   0.0644816  -0.2970830), wk =   0.0312500
        k(   43) = (  -0.5081162  -0.3868899   0.0000000), wk =   0.0312500
        k(   44) = (  -0.5081162  -0.3868899   0.1485415), wk =   0.0625000
        k(   45) = (  -0.5081162  -0.3868899  -0.2970830), wk =   0.0312500
        k(   46) = (  -0.2540581  -0.3224082   0.0000000), wk =   0.0312500
        k(   47) = (  -0.2540581  -0.3224082   0.1485415), wk =   0.0625000
        k(   48) = (  -0.2540581  -0.3224082  -0.2970830), wk =   0.0312500
        k(   49) = (   0.0000000  -0.2579266   0.0000000), wk =   0.0156250
        k(   50) = (   0.0000000  -0.2579266   0.1485415), wk =   0.0312500
        k(   51) = (   0.0000000  -0.2579266  -0.2970830), wk =   0.0156250
        k(   52) = (   1.5243485   0.0000000   0.0000000), wk =   0.0156250
        k(   53) = (   1.5243485   0.0000000   0.1485415), wk =   0.0312500
        k(   54) = (   1.5243485   0.0000000  -0.2970830), wk =   0.0156250
        k(   55) = (  -0.2540581  -0.4513715   0.0000000), wk =   0.0312500
        k(   56) = (  -0.2540581  -0.4513715   0.1485415), wk =   0.0625000
        k(   57) = (  -0.2540581  -0.4513715  -0.2970830), wk =   0.0312500
        k(   58) = (   0.0000000  -0.3868899   0.0000000), wk =   0.0156250
        k(   59) = (   0.0000000  -0.3868899   0.1485415), wk =   0.0312500
        k(   60) = (   0.0000000  -0.3868899  -0.2970830), wk =   0.0156250
        k(   61) = (  -2.0324647   0.0000000   0.0000000), wk =   0.0078125
        k(   62) = (  -2.0324647   0.0000000   0.1485415), wk =   0.0156250
        k(   63) = (  -2.0324647   0.0000000  -0.2970830), wk =   0.0078125

     Dense  grid:  1153415 G-vectors     FFT dimensions: ( 144, 144, 240)

     Smooth grid:   291749 G-vectors     FFT dimensions: (  90,  90, 150)

     Estimated max dynamical RAM per process >     657.19 MB

     Estimated total dynamical RAM >       6.42 GB

     Initial potential from superposition of free atoms

     starting charge   83.99353, renormalised to   84.00000
     Starting wfcs are   66 randomized atomic wfcs
     Checking if some PAW data can be deallocated... 

     total cpu time spent up to now is       19.5 secs

     Self-consistent Calculation

     iteration #  1     ecut=    80.00 Ry     beta= 0.70
     Davidson diagonalization with overlap
     ethr =  1.00E-02,  avg # of iterations =  2.2

     Threshold (ethr) on eigenvalues was too large:
     Diagonalizing with lowered threshold

     Davidson diagonalization with overlap
     ethr =  4.46E-04,  avg # of iterations =  4.0

     total cpu time spent up to now is      103.5 secs

     total energy              =   -4240.71919620 Ry
     estimated scf accuracy    <       0.44455453 Ry

     iteration #  2     ecut=    80.00 Ry     beta= 0.70
     Davidson diagonalization with overlap
     ethr =  5.29E-04,  avg # of iterations =  8.0

     total cpu time spent up to now is      164.7 secs

     WARNING: integrated charge=    83.99950850, expected=    84.00000000

     total energy              =   -4240.62442690 Ry
     estimated scf accuracy    <       2.03104089 Ry

     iteration #  3     ecut=    80.00 Ry     beta= 0.70
     Davidson diagonalization with overlap
     ethr =  5.29E-04,  avg # of iterations =  5.4

     total cpu time spent up to now is      215.6 secs

     WARNING: integrated charge=    83.99988066, expected=    84.00000000

     total energy              =   -4240.93315017 Ry
     estimated scf accuracy    <       0.00808082 Ry

     iteration #  4     ecut=    80.00 Ry     beta= 0.70
     Davidson diagonalization with overlap
     c_bands:  2 eigenvalues not converged
     c_bands:  1 eigenvalues not converged
     c_bands:  1 eigenvalues not converged
     c_bands:  2 eigenvalues not converged
     c_bands:  1 eigenvalues not converged
     c_bands:  3 eigenvalues not converged
     c_bands:  1 eigenvalues not converged
     c_bands:  1 eigenvalues not converged
     c_bands:  1 eigenvalues not converged
     c_bands:  2 eigenvalues not converged
     c_bands:  4 eigenvalues not converged
     c_bands:  2 eigenvalues not converged
     c_bands:  1 eigenvalues not converged
     c_bands:  1 eigenvalues not converged
     c_bands:  1 eigenvalues not converged
     c_bands:  2 eigenvalues not converged
     c_bands:  1 eigenvalues not converged
     ethr =  9.62E-06,  avg # of iterations = 17.3

     total cpu time spent up to now is      313.4 secs

     WARNING: integrated charge=    83.99986039, expected=    84.00000000

     total energy              =   -4240.94311123 Ry
     estimated scf accuracy    <       0.04125559 Ry

     iteration #  5     ecut=    80.00 Ry     beta= 0.70
     Davidson diagonalization with overlap
     ethr =  9.62E-06,  avg # of iterations =  7.0

     total cpu time spent up to now is      365.2 secs

     WARNING: integrated charge=    83.99988050, expected=    84.00000000

     total energy              =   -4240.94486884 Ry
     estimated scf accuracy    <       0.00708527 Ry

     iteration #  6     ecut=    80.00 Ry     beta= 0.70
     Davidson diagonalization with overlap
     ethr =  8.43E-06,  avg # of iterations =  3.3

     total cpu time spent up to now is      406.2 secs

     WARNING: integrated charge=    83.99992622, expected=    84.00000000

     total energy              =   -4240.94552092 Ry
     estimated scf accuracy    <       0.00087695 Ry

     iteration #  7     ecut=    80.00 Ry     beta= 0.70
     Davidson diagonalization with overlap
     ethr =  1.04E-06,  avg # of iterations =  9.6

     total cpu time spent up to now is      470.9 secs

     WARNING: integrated charge=    83.99997664, expected=    84.00000000

     total energy              =   -4240.94596330 Ry
     estimated scf accuracy    <       0.00102338 Ry

     iteration #  8     ecut=    80.00 Ry     beta= 0.70
     Davidson diagonalization with overlap
     ethr =  1.04E-06,  avg # of iterations =  2.2

     total cpu time spent up to now is      508.0 secs

     total energy              =   -4240.94599873 Ry
     estimated scf accuracy    <       0.00014055 Ry

     iteration #  9     ecut=    80.00 Ry     beta= 0.70
     Davidson diagonalization with overlap
     ethr =  1.67E-07,  avg # of iterations =  6.4

     total cpu time spent up to now is      558.7 secs

     total energy              =   -4240.94604634 Ry
     estimated scf accuracy    <       0.00002356 Ry

     iteration # 10     ecut=    80.00 Ry     beta= 0.70
     Davidson diagonalization with overlap
     ethr =  2.80E-08,  avg # of iterations =  2.8

     total cpu time spent up to now is      597.8 secs

     total energy              =   -4240.94604850 Ry
     estimated scf accuracy    <       0.00000277 Ry

     iteration # 11     ecut=    80.00 Ry     beta= 0.70
     Davidson diagonalization with overlap
     ethr =  3.30E-09,  avg # of iterations =  6.4

     total cpu time spent up to now is      651.8 secs

     total energy              =   -4240.94605012 Ry
     estimated scf accuracy    <       0.00000105 Ry

     iteration # 12     ecut=    80.00 Ry     beta= 0.70
     Davidson diagonalization with overlap
     ethr =  1.25E-09,  avg # of iterations =  1.8

     total cpu time spent up to now is      688.2 secs

     total energy              =   -4240.94605015 Ry
     estimated scf accuracy    <       0.00000017 Ry

     iteration # 13     ecut=    80.00 Ry     beta= 0.70
     Davidson diagonalization with overlap
     ethr =  2.02E-10,  avg # of iterations =  6.1

     total cpu time spent up to now is      741.1 secs

     total energy              =   -4240.94605023 Ry
     estimated scf accuracy    <       0.00000005 Ry

     iteration # 14     ecut=    80.00 Ry     beta= 0.70
     Davidson diagonalization with overlap
     ethr =  6.47E-11,  avg # of iterations =  1.3

     total cpu time spent up to now is      775.9 secs

     total energy              =   -4240.94605023 Ry
     estimated scf accuracy    <       0.00000002 Ry

     iteration # 15     ecut=    80.00 Ry     beta= 0.70
     Davidson diagonalization with overlap
     ethr =  2.74E-11,  avg # of iterations =  4.7

     total cpu time spent up to now is      819.6 secs

     End of self-consistent calculation

          k = 0.0000 0.0000 0.0000 ( 36359 PWs)   bands (ev):

   -44.1421 -44.1421 -22.2596 -22.2596 -22.1693 -22.1693 -22.0765 -22.0764
    -8.1051  -7.8653  -7.1294  -6.9331  -6.1549  -5.4116  -4.8038  -4.7769
    -4.7542  -3.7918   0.2588   0.7739   0.8144   1.1494   1.3382   1.5363
     1.9886   2.1433   2.2768   2.7907   2.9186   2.9938   3.3014   3.3438
     3.8039   3.9021   4.0585   4.0904   4.3267   4.3405   4.4295   4.7184
     4.7318   5.3741   5.6347   5.8840   5.8904   5.9733   5.9925   6.7669
     7.0593   7.2815

          k = 0.0000 0.0000 0.1485 ( 36415 PWs)   bands (ev):

   -44.1421 -44.1421 -22.2596 -22.2596 -22.1693 -22.1693 -22.0765 -22.0764
    -8.0777  -7.9117  -7.0859  -6.9516  -6.0885  -5.6082  -4.7959  -4.7614
    -4.5529  -3.9028   0.3345   0.8422   0.9163   0.9532   1.1060   1.8691
     2.0073   2.0193   2.1153   2.8158   2.9047   3.0606   3.3956   3.4449
     3.7699   3.9539   4.0300   4.1014   4.2543   4.3725   4.4397   4.7136
     4.7148   4.9040   5.8425   5.8847   5.8914   6.1475   6.3500   6.6095
     6.8722   7.1368

          k = 0.0000 0.0000-0.2971 ( 36410 PWs)   bands (ev):

   -44.1421 -44.1421 -22.2596 -22.2596 -22.1693 -22.1693 -22.0765 -22.0765
    -8.0034  -8.0034  -7.0071  -7.0071  -5.8933  -5.8933  -4.7787  -4.7787
    -4.1910  -4.1910   0.5627   0.5627   0.9636   0.9636   1.3438   1.3438
     2.0568   2.0568   2.5795   2.5795   2.8655   2.8655   3.5797   3.5797
     3.9243   3.9243   4.0929   4.0929   4.3172   4.3172   4.4235   4.4235
     4.7062   4.7062   5.8835   5.8835   6.2236   6.2236   6.4994   6.4994
     6.8313   6.8313

          k = 0.2541 0.0645 0.0000 ( 36396 PWs)   bands (ev):

   -44.1417 -44.1417 -22.2576 -22.2576 -22.1789 -22.1789 -22.0754 -22.0753
    -7.9817  -7.7450  -7.0633  -6.8841  -6.0950  -5.3638  -4.8191  -4.7584
    -4.7088  -3.9642   0.3412   0.8898   0.9397   1.0284   1.2590   1.4867
     1.5809   1.6783   1.7929   2.5867   2.6154   3.2303   3.2565   3.7082
     3.7770   3.7787   3.8682   3.8806   4.0630   4.2580   4.3306   4.3912
     4.4689   4.5800   5.9006   5.9797   6.1758   6.5191   6.5732   6.6598
     7.0362   7.2170

          k = 0.2541 0.0645 0.1485 ( 36423 PWs)   bands (ev):

   -44.1417 -44.1417 -22.2576 -22.2576 -22.1789 -22.1789 -22.0754 -22.0753
    -7.9547  -7.7909  -7.0232  -6.9010  -6.0280  -5.5562  -4.7622  -4.7180
    -4.6006  -4.0517   0.4057   0.8554   0.9200   0.9812   1.2093   1.2564
     1.7241   1.7592   2.1185   2.5847   2.5974   2.9530   3.3989   3.4094
     3.5268   3.8304   3.9583   4.0101   4.0546   4.1994   4.3863   4.4086
     4.6905   4.7517   5.8753   5.9940   6.1338   6.2406   6.3353   6.7879
     7.2118   7.2594

          k = 0.2541 0.0645-0.2971 ( 36436 PWs)   bands (ev):

   -44.1417 -44.1417 -22.2576 -22.2576 -22.1789 -22.1789 -22.0754 -22.0754
    -7.8815  -7.8815  -6.9514  -6.9514  -5.8343  -5.8343  -4.7394  -4.7394
    -4.2882  -4.2882   0.5926   0.5926   1.0122   1.0122   1.1138   1.1138
     1.8545   1.8545   2.4869   2.4869   2.6541   2.6541   3.2530   3.2530
     3.6667   3.6667   3.9910   3.9910   4.1541   4.1541   4.4091   4.4091
     4.9486   4.9486   5.7945   5.7945   6.1470   6.1470   6.4608   6.4608
     7.3720   7.3720

          k = 0.5081 0.1290 0.0000 ( 36499 PWs)   bands (ev):

   -44.1408 -44.1408 -22.2529 -22.2529 -22.2020 -22.2020 -22.0727 -22.0726
    -7.6227  -7.3922  -6.9059  -6.7614  -5.9201  -5.2478  -5.0126  -4.6446
    -4.5974  -4.4712   0.1421   0.5142   0.6777   1.0923   1.1686   1.3025
     1.6326   1.7091   1.8348   2.0868   2.1492   2.3577   2.5283   3.4173
     3.4981   3.5330   3.5748   3.6349   3.7694   3.8541   3.9774   4.2098
     4.3320   4.9169   5.7642   6.1339   6.2354   6.6053   6.6346   7.0228
     7.4456   7.5570

          k = 0.5081 0.1290 0.1485 ( 36476 PWs)   bands (ev):

   -44.1408 -44.1408 -22.2529 -22.2529 -22.2020 -22.2020 -22.0727 -22.0727
    -7.5969  -7.4382  -6.8725  -6.7749  -5.8556  -5.4319  -4.8653  -4.6309
    -4.6166  -4.4913   0.1889   0.5011   0.7680   0.9065   1.1947   1.2853
     1.4031   1.5746   2.0070   2.0927   2.3380   2.4697   2.8446   3.3894
     3.4458   3.5034   3.5167   3.6574   3.7479   3.7757   3.8643   4.2486
     4.2983   4.4739   6.2147   6.2539   6.4063   6.6053   6.6863   6.8915
     7.2947   7.5241

          k = 0.5081 0.1290-0.2971 ( 36466 PWs)   bands (ev):

   -44.1408 -44.1408 -22.2529 -22.2529 -22.2020 -22.2020 -22.0727 -22.0727
    -7.5265  -7.5265  -6.8149  -6.8149  -5.6773  -5.6773  -4.7153  -4.7153
    -4.5519  -4.5519   0.3380   0.3380   0.9824   0.9824   1.0074   1.0074
     1.4513   1.4513   2.0552   2.0552   2.6702   2.6702   3.1815   3.1815
     3.3942   3.3942   3.5737   3.5737   3.7440   3.7440   3.8843   3.8843
     4.3292   4.3292   6.4524   6.4524   6.5690   6.5690   6.8749   6.8749
     7.2098   7.2098

          k = 0.7622 0.1934 0.0000 ( 36521 PWs)   bands (ev):

   -44.1400 -44.1399 -22.2482 -22.2482 -22.2250 -22.2250 -22.0700 -22.0700
    -7.0852  -6.8374  -6.7589  -6.6017  -5.7299  -5.4776  -5.1609  -5.1411
    -4.5183  -4.4808  -0.1448   0.0208   0.3064   0.9448   0.9487   1.2908
     1.4867   1.5999   2.0039   2.1836   2.2305   2.2557   2.4416   2.8057
     2.9618   3.2548   3.3547   3.4960   3.4992   3.6682   3.7381   3.7618
     3.8400   4.5774   6.0834   6.4229   6.5033   6.9133   6.9375   7.0008
     7.3701   7.6367

          k = 0.7622 0.1934 0.1485 ( 36503 PWs)   bands (ev):

   -44.1399 -44.1399 -22.2482 -22.2482 -22.2250 -22.2250 -22.0700 -22.0700
    -7.0620  -6.9065  -6.7051  -6.6135  -5.6899  -5.5100  -5.1638  -5.1475
    -4.5106  -4.4845  -0.1169   0.1543   0.2036   0.8185   0.9611   1.2433
     1.4970   1.6056   1.9911   2.0395   2.1296   2.5914   2.6970   2.8890
     2.9262   3.0468   3.2720   3.3694   3.5150   3.6107   3.7192   3.9309
     3.9819   4.4719   5.9056   6.4146   6.7200   6.8542   7.0224   7.0343
     7.1553   7.6470

          k = 0.7622 0.1934-0.2971 ( 36522 PWs)   bands (ev):

   -44.1399 -44.1399 -22.2482 -22.2482 -22.2250 -22.2250 -22.0700 -22.0700
    -6.9972  -6.9972  -6.6483  -6.6483  -5.5966  -5.5966  -5.1599  -5.1599
    -4.4956  -4.4956   0.0103   0.0103   0.4735   0.4735   1.0810   1.0810
     1.5586   1.5586   2.0042   2.0042   2.4188   2.4188   2.8386   2.8386
     2.9707   2.9707   3.2824   3.2824   3.5972   3.5972   3.9455   3.9455
     4.0632   4.0632   6.3058   6.3058   6.5057   6.5057   7.0453   7.0453
     7.5270   7.5270

          k =-1.0162-0.2579 0.0000 ( 36506 PWs)   bands (ev):

   -44.1396 -44.1396 -22.2461 -22.2461 -22.2345 -22.2345 -22.0689 -22.0689
    -6.7453  -6.7247  -6.1826  -6.1712  -6.1539  -6.1488  -5.2257  -5.2252
    -4.4606  -4.4320  -0.1059  -0.0859   0.2030   0.2247   1.0110   1.0192
     1.4670   1.6622   2.2198   2.3833   2.4028   2.4272   2.8053   2.8219
     2.8259   2.8493   3.1867   3.2454   3.3107   3.3696   3.4448   3.6408
     3.9104   4.1807   6.6455   6.7176   6.7212   6.7407   7.0956   7.1914
     7.1939   7.2534

          k =-1.0162-0.2579 0.1485 ( 36506 PWs)   bands (ev):

   -44.1396 -44.1396 -22.2461 -22.2461 -22.2345 -22.2345 -22.0689 -22.0689
    -6.7408  -6.7261  -6.2115  -6.2040  -6.1239  -6.1196  -5.2238  -5.2235
    -4.4589  -4.4387  -0.2007  -0.1946   0.4016   0.4095   1.0063   1.0177
     1.4605   1.5922   2.0520   2.1741   2.3527   2.3952   2.6615   2.6739
     2.9299   3.0428   3.0893   3.2020   3.5414   3.5605   3.5918   3.7229
     4.0641   4.2115   6.1963   6.2169   6.5547   6.6317   7.1994   7.2099
     7.4099   7.4773

          k =-1.0162-0.2579-0.2971 ( 36528 PWs)   bands (ev):

   -44.1396 -44.1396 -22.2461 -22.2461 -22.2345 -22.2345 -22.0689 -22.0689
    -6.7319  -6.7319  -6.2249  -6.2249  -6.1059  -6.1059  -5.2219  -5.2219
    -4.4513  -4.4513  -0.2597  -0.2597   0.5975   0.5975   0.9716   0.9716
     1.5088   1.5088   1.8929   1.8929   2.3558   2.3558   2.7617   2.7617
     2.8426   2.8426   3.1850   3.1850   3.6346   3.6346   3.7934   3.7934
     4.3147   4.3147   5.8183   5.8183   6.4998   6.4998   7.2201   7.2201
     7.5403   7.5403

          k = 0.5081 0.0000 0.0000 ( 36503 PWs)   bands (ev):

   -44.1408 -44.1408 -22.2529 -22.2529 -22.2020 -22.2020 -22.0727 -22.0726
    -7.6252  -7.3927  -6.9064  -6.7595  -5.9170  -5.2474  -5.0100  -4.6382
    -4.6050  -4.4707   0.1469   0.5093   0.6760   1.1154   1.1645   1.2486
     1.6270   1.7011   1.8214   2.0937   2.1466   2.3430   2.5302   3.4099
     3.5329   3.5486   3.5899   3.6061   3.7802   3.9073   3.9592   4.2474
     4.3346   4.9093   5.7703   6.1099   6.2697   6.5682   6.5826   7.0599
     7.4532   7.5787

          k = 0.5081 0.0000 0.1485 ( 36453 PWs)   bands (ev):

   -44.1408 -44.1408 -22.2529 -22.2529 -22.2020 -22.2020 -22.0727 -22.0727
    -7.5992  -7.4392  -6.8721  -6.7730  -5.8531  -5.4312  -4.8616  -4.6318
    -4.6159  -4.4929   0.1921   0.4946   0.7696   0.9122   1.2149   1.2552
     1.3698   1.5521   2.0058   2.1057   2.3350   2.4483   2.8440   3.4058
     3.4679   3.4811   3.5280   3.6703   3.7357   3.8396   3.8427   4.2980
     4.3021   4.4597   6.2030   6.2647   6.4254   6.5601   6.6485   6.9248
     7.3104   7.5379

          k = 0.5081 0.0000-0.2971 ( 36452 PWs)   bands (ev):

   -44.1408 -44.1408 -22.2529 -22.2529 -22.2020 -22.2020 -22.0727 -22.0727
    -7.5283  -7.5283  -6.8134  -6.8134  -5.6759  -5.6759  -4.7117  -4.7117
    -4.5546  -4.5546   0.3372   0.3372   0.9836   0.9836   1.0112   1.0112
     1.4162   1.4162   2.0589   2.0589   2.6603   2.6603   3.1812   3.1812
     3.4020   3.4020   3.5795   3.5795   3.7743   3.7743   3.8759   3.8759
     4.3475   4.3475   6.4673   6.4673   6.5330   6.5330   6.8932   6.8932
     7.2107   7.2107

          k = 0.7622 0.0645 0.0000 ( 36505 PWs)   bands (ev):

   -44.1399 -44.1399 -22.2482 -22.2482 -22.2250 -22.2250 -22.0700 -22.0700
    -7.0915  -6.8384  -6.7563  -6.5968  -5.7302  -5.4753  -5.1612  -5.1402
    -4.5076  -4.4923  -0.1358   0.0180   0.3167   0.9384   0.9757   1.3042
     1.4539   1.5626   1.9676   2.2077   2.2340   2.2639   2.3783   2.7814
     2.9517   3.3004   3.3677   3.5006   3.5612   3.6630   3.6985   3.7711
     3.8341   4.6029   6.0808   6.3969   6.5220   6.9103   6.9605   6.9697
     7.3803   7.6684

          k = 0.7622 0.0645 0.1485 ( 36509 PWs)   bands (ev):

   -44.1399 -44.1399 -22.2482 -22.2482 -22.2250 -22.2250 -22.0700 -22.0700
    -7.0679  -6.9093  -6.7010  -6.6084  -5.6904  -5.5088  -5.1634  -5.1466
    -4.5031  -4.4926  -0.1084   0.1524   0.2108   0.8081   0.9887   1.2570
     1.4674   1.6029   1.9769   2.0057   2.0815   2.5955   2.6956   2.8804
     2.9093   3.0517   3.3154   3.3738   3.5602   3.6006   3.6881   3.9665
     3.9797   4.4658   5.9300   6.3915   6.7361   6.8554   6.9938   7.0767
     7.1275   7.6697

          k = 0.7622 0.0645-0.2971 ( 36472 PWs)   bands (ev):

   -44.1399 -44.1399 -22.2482 -22.2482 -22.2250 -22.2250 -22.0700 -22.0700
    -7.0019  -7.0019  -6.6431  -6.6431  -5.5968  -5.5968  -5.1589  -5.1589
    -4.4958  -4.4958   0.0186   0.0186   0.4664   0.4664   1.1013   1.1013
     1.5533   1.5533   1.9510   1.9510   2.4103   2.4103   2.8428   2.8428
     2.9509   2.9509   3.3347   3.3347   3.5942   3.5942   3.9441   3.9441
     4.0626   4.0626   6.3328   6.3328   6.5051   6.5051   7.0149   7.0149
     7.5544   7.5544

          k = 1.0162 0.1290 0.0000 ( 36514 PWs)   bands (ev):

   -44.1396 -44.1396 -22.2461 -22.2461 -22.2345 -22.2345 -22.0689 -22.0689
    -6.7453  -6.7247  -6.1824  -6.1713  -6.1539  -6.1488  -5.2257  -5.2252
    -4.4606  -4.4320  -0.1116  -0.0801   0.2000   0.2278   1.0033   1.0279
     1.4737   1.6523   2.2164   2.3885   2.4052   2.4214   2.7768   2.8231
     2.8437   2.8739   3.2069   3.2167   3.2941   3.3558   3.4920   3.6231
     3.8940   4.1968   6.6397   6.7059   6.7262   6.7561   7.1194   7.1917
     7.1959   7.2341

          k = 1.0162 0.1290 0.1485 ( 36524 PWs)   bands (ev):

   -44.1396 -44.1396 -22.2461 -22.2461 -22.2345 -22.2345 -22.0689 -22.0689
    -6.7408  -6.7261  -6.2114  -6.2041  -6.1239  -6.1196  -5.2238  -5.2235
    -4.4589  -4.4387  -0.2031  -0.1926   0.4028   0.4087   1.0056   1.0186
     1.4666   1.5859   2.0620   2.1570   2.3553   2.3934   2.6334   2.7083
     2.9312   3.0545   3.0877   3.1924   3.5174   3.5598   3.6255   3.7154
     4.0425   4.2308   6.1910   6.2269   6.5512   6.6342   7.2024   7.2097
     7.4203   7.4682

          k = 1.0162 0.1290-0.2971 ( 36516 PWs)   bands (ev):

   -44.1396 -44.1396 -22.2461 -22.2461 -22.2345 -22.2345 -22.0689 -22.0689
    -6.7319  -6.7319  -6.2249  -6.2249  -6.1059  -6.1059  -5.2219  -5.2219
    -4.4513  -4.4513  -0.2598  -0.2598   0.5978   0.5978   0.9714   0.9714
     1.5100   1.5100   1.8937   1.8937   2.3489   2.3489   2.7426   2.7426
     2.8768   2.8768   3.1736   3.1736   3.6365   3.6365   3.7922   3.7922
     4.3152   4.3152   5.8211   5.8211   6.4990   6.4990   7.2211   7.2211
     7.5414   7.5414

          k =-0.7622-0.3224 0.0000 ( 36511 PWs)   bands (ev):

   -44.1400 -44.1399 -22.2482 -22.2482 -22.2250 -22.2250 -22.0700 -22.0700
    -7.0759  -6.8360  -6.7633  -6.6083  -5.7294  -5.4810  -5.1602  -5.1425
    -4.5266  -4.4715  -0.1574   0.0248   0.2915   0.9109   0.9631   1.2744
     1.5036   1.6661   2.0788   2.1601   2.2210   2.2772   2.4609   2.8424
     2.9722   3.2153   3.3413   3.4818   3.4906   3.6265   3.6796   3.7292
     3.9531   4.5330   6.0873   6.4403   6.5095   6.8317   6.9789   7.0677
     7.3442   7.5923

          k =-0.7622-0.3224 0.1485 ( 36492 PWs)   bands (ev):

   -44.1399 -44.1399 -22.2482 -22.2482 -22.2250 -22.2250 -22.0700 -22.0700
    -7.0532  -6.9026  -6.7115  -6.6206  -5.6893  -5.5118  -5.1641  -5.1490
    -4.5164  -4.4780  -0.1286   0.1582   0.1923   0.8326   0.9301   1.2246
     1.5264   1.6165   1.9861   2.1316   2.1877   2.5886   2.6762   2.9102
     2.9351   3.0653   3.2284   3.3460   3.4747   3.5886   3.7511   3.8790
     4.0028   4.4787   5.8734   6.4512   6.6890   6.8503   6.9930   7.0788
     7.1812   7.5975

          k =-0.7622-0.3224-0.2971 ( 36508 PWs)   bands (ev):

   -44.1399 -44.1399 -22.2482 -22.2482 -22.2250 -22.2250 -22.0700 -22.0700
    -6.9902  -6.9902  -6.6560  -6.6560  -5.5963  -5.5963  -5.1613  -5.1613
    -4.4954  -4.4954  -0.0012  -0.0012   0.4830   0.4830   1.0570   1.0570
     1.5668   1.5668   2.0680   2.0680   2.4449   2.4449   2.8337   2.8337
     2.9992   2.9992   3.2089   3.2089   3.5946   3.5946   3.9178   3.9178
     4.0923   4.0923   6.2718   6.2718   6.5049   6.5049   7.0941   7.0941
     7.4772   7.4773

          k =-0.5081-0.2579 0.0000 ( 36480 PWs)   bands (ev):

   -44.1408 -44.1408 -22.2529 -22.2529 -22.2020 -22.2020 -22.0727 -22.0726
    -7.6166  -7.3911  -6.9053  -6.7655  -5.9278  -5.2488  -5.0187  -4.6540
    -4.5851  -4.4724   0.1308   0.5258   0.6792   1.0667   1.1785   1.4136
     1.6423   1.7377   1.8683   2.0749   2.1469   2.3883   2.5214   3.3947
     3.4379   3.5305   3.5550   3.6733   3.7128   3.7637   4.0157   4.1245
     4.3224   4.9332   5.7519   6.1430   6.2039   6.7007   6.7585   6.9358
     7.4190   7.5086

          k =-0.5081-0.2579 0.1485 ( 36485 PWs)   bands (ev):

   -44.1408 -44.1408 -22.2529 -22.2529 -22.2020 -22.2020 -22.0727 -22.0727
    -7.5911  -7.4356  -6.8739  -6.7791  -5.8618  -5.4333  -4.8740  -4.6285
    -4.6183  -4.4876   0.1812   0.5163   0.7637   0.8925   1.1822   1.3169
     1.4962   1.6377   1.9992   2.0698   2.3477   2.5108   2.8453   3.3167
     3.4492   3.5031   3.5115   3.6368   3.6489   3.7683   3.8990   4.1636
     4.2641   4.4989   6.2157   6.2498   6.3661   6.7031   6.7896   6.8199
     7.2491   7.4954

          k =-0.5081-0.2579-0.2971 ( 36478 PWs)   bands (ev):

   -44.1408 -44.1408 -22.2529 -22.2529 -22.2020 -22.2020 -22.0727 -22.0727
    -7.5219  -7.5219  -6.8186  -6.8186  -5.6806  -5.6806  -4.7237  -4.7237
    -4.5459  -4.5459   0.3399   0.3399   0.9773   0.9773   1.0025   1.0025
     1.5427   1.5427   2.0409   2.0409   2.6999   2.6999   3.1647   3.1647
     3.3765   3.3765   3.5426   3.5426   3.6995   3.6995   3.9019   3.9019
     4.2867   4.2867   6.4184   6.4184   6.6466   6.6466   6.8343   6.8343
     7.2152   7.2153

          k =-0.2541-0.1934 0.0000 ( 36410 PWs)   bands (ev):

   -44.1417 -44.1417 -22.2576 -22.2576 -22.1789 -22.1789 -22.0754 -22.0753
    -7.9775  -7.7442  -7.0591  -6.8866  -6.1067  -5.3672  -4.8325  -4.7618
    -4.6953  -3.9650   0.3648   0.8941   1.0064   1.0243   1.2872   1.5239
     1.6066   1.6806   1.8164   2.5557   2.6059   3.2179   3.3150   3.6815
     3.7251   3.7360   3.8490   3.8751   3.9130   4.1943   4.3206   4.3441
     4.3618   4.6235   5.9580   6.0190   6.2519   6.5319   6.5588   6.7275
     7.0091   7.1380

          k =-0.2541-0.1934 0.1485 ( 36427 PWs)   bands (ev):

   -44.1417 -44.1417 -22.2576 -22.2576 -22.1789 -22.1789 -22.0754 -22.0753
    -7.9508  -7.7892  -7.0210  -6.9031  -6.0381  -5.5600  -4.7789  -4.7104
    -4.5959  -4.0518   0.4289   0.8573   0.9301   1.0537   1.2387   1.2785
     1.7306   1.7668   2.1510   2.5551   2.5916   2.9458   3.4143   3.4537
     3.5371   3.7425   3.8374   3.9062   4.0084   4.1701   4.3445   4.3577
     4.6623   4.7798   5.8745   6.0167   6.1365   6.3138   6.4028   6.7875
     7.1722   7.2502

          k =-0.2541-0.1934-0.2971 ( 36422 PWs)   bands (ev):

   -44.1417 -44.1417 -22.2576 -22.2576 -22.1789 -22.1789 -22.0754 -22.0754
    -7.8784  -7.8784  -6.9521  -6.9521  -5.8408  -5.8408  -4.7432  -4.7432
    -4.2867  -4.2867   0.6120   0.6120   1.0355   1.0355   1.1523   1.1523
     1.8606   1.8606   2.4855   2.4855   2.6553   2.6553   3.2625   3.2625
     3.6746   3.6746   3.8393   3.8393   4.1297   4.1297   4.3562   4.3562
     4.9638   4.9638   5.7653   5.7653   6.1850   6.1850   6.5087   6.5087
     7.3605   7.3605

          k = 0.0000-0.1290 0.0000 ( 36417 PWs)   bands (ev):

   -44.1421 -44.1421 -22.2596 -22.2596 -22.1693 -22.1693 -22.0765 -22.0764
    -8.1029  -7.8649  -7.1263  -6.9342  -6.1624  -5.4141  -4.8155  -4.7810
    -4.7403  -3.7923   0.2751   0.7773   0.8551   1.1603   1.3496   1.5674
     1.9886   2.1428   2.2749   2.7977   2.9215   2.9962   3.2982   3.3824
     3.7678   3.8908   3.9284   4.0127   4.2866   4.3270   4.3826   4.7174
     4.7193   5.3488   5.6546   5.9079   5.9412   6.0003   6.0210   6.7797
     7.0593   7.2294

          k = 0.0000-0.1290 0.1485 ( 36419 PWs)   bands (ev):

   -44.1421 -44.1421 -22.2596 -22.2596 -22.1693 -22.1693 -22.0765 -22.0764
    -8.0756  -7.9108  -7.0840  -6.9525  -6.0950  -5.6110  -4.8051  -4.7562
    -4.5514  -3.9029   0.3510   0.8857   0.9241   0.9572   1.1268   1.8734
     2.0072   2.0371   2.1149   2.8221   2.9081   3.0656   3.3756   3.4826
     3.7664   3.9073   3.9433   4.0005   4.2507   4.3184   4.3947   4.7066
     4.7127   4.8973   5.8572   5.9122   5.9400   6.1535   6.3630   6.6176
     6.8733   7.1058

          k = 0.0000-0.1290-0.2971 ( 36464 PWs)   bands (ev):

   -44.1421 -44.1421 -22.2596 -22.2596 -22.1693 -22.1693 -22.0765 -22.0765
    -8.0017  -8.0017  -7.0070  -7.0070  -5.8977  -5.8977  -4.7805  -4.7805
    -4.1904  -4.1904   0.5814   0.5814   0.9888   0.9888   1.3492   1.3492
     2.0567   2.0567   2.5916   2.5916   2.8704   2.8704   3.5819   3.5819
     3.8602   3.8602   4.0845   4.0845   4.2357   4.2357   4.4132   4.4132
     4.7034   4.7034   5.9126   5.9126   6.2367   6.2367   6.5027   6.5027
     6.8230   6.8230

          k = 1.0162 0.0000 0.0000 ( 36499 PWs)   bands (ev):

   -44.1396 -44.1396 -22.2461 -22.2461 -22.2345 -22.2345 -22.0689 -22.0689
    -6.7453  -6.7247  -6.1822  -6.1715  -6.1539  -6.1487  -5.2257  -5.2252
    -4.4606  -4.4320  -0.1157  -0.0759   0.1976   0.2303   0.9992   1.0328
     1.4813   1.6413   2.2131   2.3970   2.4076   2.4124   2.7666   2.8289
     2.8338   2.9039   3.1978   3.2332   3.2736   3.3356   3.5577   3.5804
     3.8794   4.2111   6.6349   6.6970   6.7340   6.7652   7.1609   7.1922
     7.1970   7.1977

          k = 1.0162 0.0000 0.1485 ( 36485 PWs)   bands (ev):

   -44.1396 -44.1396 -22.2461 -22.2461 -22.2345 -22.2345 -22.0689 -22.0689
    -6.7409  -6.7261  -6.2113  -6.2041  -6.1238  -6.1197  -5.2239  -5.2235
    -4.4589  -4.4387  -0.2048  -0.1912   0.4048   0.4073   1.0050   1.0193
     1.4736   1.5788   2.0765   2.1356   2.3601   2.3889   2.6228   2.7237
     2.9365   3.0603   3.0919   3.1803   3.5024   3.5603   3.6544   3.7028
     4.0244   4.2466   6.1882   6.2346   6.5480   6.6365   7.2073   7.2077
     7.4445   7.4454

          k = 1.0162 0.0000-0.2971 ( 36514 PWs)   bands (ev):

   -44.1396 -44.1396 -22.2461 -22.2461 -22.2345 -22.2345 -22.0689 -22.0689
    -6.7319  -6.7319  -6.2249  -6.2249  -6.1059  -6.1059  -5.2219  -5.2219
    -4.4513  -4.4513  -0.2599  -0.2599   0.5982   0.5982   0.9712   0.9712
     1.5112   1.5112   1.8945   1.8945   2.3421   2.3421   2.7305   2.7305
     2.9055   2.9055   3.1607   3.1607   3.6384   3.6384   3.7911   3.7911
     4.3157   4.3157   5.8238   5.8238   6.4983   6.4983   7.2220   7.2220
     7.5426   7.5426

          k = 1.2703 0.0645 0.0000 ( 36468 PWs)   bands (ev):

   -44.1399 -44.1399 -22.2482 -22.2482 -22.2250 -22.2250 -22.0700 -22.0700
    -7.0689  -6.8350  -6.7670  -6.6127  -5.7292  -5.4834  -5.1596  -5.1437
    -4.5309  -4.4664  -0.1660   0.0279   0.2809   0.8915   0.9732   1.2639
     1.5059   1.7152   2.1456   2.1634   2.2243   2.2915   2.4233   2.8714
     2.9751   3.1887   3.3744   3.4693   3.5051   3.5985   3.6022   3.6899
     4.0464   4.4907   6.0900   6.4391   6.5376   6.7723   7.0104   7.1312
     7.3092   7.5790

          k = 1.2703 0.0645 0.1485 ( 36490 PWs)   bands (ev):

   -44.1399 -44.1399 -22.2482 -22.2482 -22.2250 -22.2250 -22.0700 -22.0700
    -7.0467  -6.8998  -6.7165  -6.6256  -5.6888  -5.5130  -5.1643  -5.1501
    -4.5194  -4.4744  -0.1368   0.1636   0.1816   0.8416   0.9126   1.2126
     1.5384   1.6301   1.9861   2.1945   2.2391   2.5968   2.6316   2.9275
     2.9392   3.0954   3.2028   3.3149   3.4792   3.5401   3.7666   3.8352
     4.0338   4.4816   5.8524   6.4821   6.6594   6.8467   6.9721   7.1382
     7.1874   7.5511

          k = 1.2703 0.0645-0.2971 ( 36480 PWs)   bands (ev):

   -44.1399 -44.1399 -22.2482 -22.2482 -22.2250 -22.2250 -22.0700 -22.0700
    -6.9851  -6.9851  -6.6617  -6.6617  -5.5961  -5.5961  -5.1623  -5.1623
    -4.4952  -4.4952  -0.0091  -0.0091   0.4892   0.4892   1.0425   1.0425
     1.5730   1.5730   2.1028   2.1028   2.4784   2.4784   2.8316   2.8316
     3.0187   3.0187   3.1549   3.1549   3.5885   3.5885   3.8880   3.8880
     4.1221   4.1221   6.2500   6.2500   6.5035   6.5035   7.1341   7.1341
     7.4317   7.4318

          k =-0.5081-0.3869 0.0000 ( 36463 PWs)   bands (ev):

   -44.1408 -44.1408 -22.2529 -22.2529 -22.2020 -22.2020 -22.0727 -22.0726
    -7.6103  -7.3900  -6.9055  -6.7689  -5.9356  -5.2497  -5.0249  -4.6599
    -4.5762  -4.4735   0.1198   0.5378   0.6759   1.0567   1.1882   1.5383
     1.6522   1.7553   1.9035   2.0547   2.1721   2.3897   2.5112   3.2890
     3.4663   3.5186   3.5436   3.6270   3.7141   3.7269   3.9542   4.1231
     4.3097   4.9465   5.7419   6.0582   6.2709   6.8065   6.8500   6.8895
     7.3635   7.4819

          k =-0.5081-0.3869 0.1485 ( 36477 PWs)   bands (ev):

   -44.1408 -44.1408 -22.2529 -22.2529 -22.2020 -22.2020 -22.0727 -22.0727
    -7.5853  -7.4331  -6.8758  -6.7829  -5.8679  -5.4348  -4.8825  -4.6257
    -4.6207  -4.4841   0.1738   0.5310   0.7590   0.8781   1.1816   1.3368
     1.6143   1.7106   1.9734   2.0449   2.3806   2.5205   2.8448   3.2279
     3.4615   3.4706   3.5080   3.5622   3.6598   3.7459   3.9157   4.1172
     4.2164   4.5197   6.1669   6.2832   6.3404   6.7306   6.8065   6.9259
     7.1845   7.4836

          k =-0.5081-0.3869-0.2971 ( 36492 PWs)   bands (ev):

   -44.1408 -44.1408 -22.2529 -22.2529 -22.2020 -22.2020 -22.0727 -22.0727
    -7.5173  -7.5173  -6.8225  -6.8225  -5.6838  -5.6838  -4.7315  -4.7315
    -4.5404  -4.5404   0.3415   0.3415   0.9712   0.9712   1.0003   1.0003
     1.6535   1.6535   2.0110   2.0110   2.7428   2.7428   3.1040   3.1040
     3.3677   3.3677   3.5068   3.5068   3.6815   3.6815   3.9129   3.9129
     4.2503   4.2503   6.3862   6.3862   6.6926   6.6926   6.8146   6.8146
     7.2387   7.2387

          k =-0.2541-0.3224 0.0000 ( 36485 PWs)   bands (ev):

   -44.1417 -44.1417 -22.2576 -22.2576 -22.1789 -22.1789 -22.0754 -22.0753
    -7.9715  -7.7431  -7.0539  -6.8890  -6.1237  -5.3718  -4.8512  -4.7591
    -4.6840  -3.9662   0.3900   0.9035   1.0151   1.1222   1.3350   1.5942
     1.6438   1.6849   1.8522   2.4879   2.5628   3.2184   3.4106   3.5478
     3.6079   3.7010   3.7153   3.8604   3.9559   4.1346   4.1791   4.2809
     4.3248   4.6643   6.0490   6.0576   6.3198   6.5522   6.5715   6.8014
     6.9307   7.0597

          k =-0.2541-0.3224 0.1485 ( 36445 PWs)   bands (ev):

   -44.1417 -44.1417 -22.2576 -22.2576 -22.1789 -22.1789 -22.0754 -22.0753
    -7.9452  -7.7867  -7.0183  -6.9055  -6.0524  -5.5654  -4.7973  -4.7039
    -4.5900  -4.0519   0.4534   0.8623   0.9406   1.1688   1.3061   1.3122
     1.7492   1.7773   2.2019   2.4909   2.5524   2.9516   3.4146   3.5008
     3.5397   3.5736   3.6569   3.9043   3.9374   4.1107   4.2603   4.3162
     4.6611   4.7969   5.8719   6.0451   6.1417   6.3679   6.5016   6.7701
     7.1418   7.2336

          k =-0.2541-0.3224-0.2971 ( 36442 PWs)   bands (ev):

   -44.1417 -44.1417 -22.2576 -22.2576 -22.1789 -22.1789 -22.0754 -22.0754
    -7.8739  -7.8739  -6.9531  -6.9531  -5.8499  -5.8499  -4.7485  -4.7485
    -4.2844  -4.2844   0.6317   0.6317   1.0558   1.0558   1.2438   1.2438
     1.8731   1.8731   2.4680   2.4680   2.6547   2.6547   3.2720   3.2720
     3.5429   3.5429   3.8043   3.8043   4.0710   4.0710   4.2954   4.2954
     4.9840   4.9840   5.7338   5.7338   6.1941   6.1941   6.5831   6.5831
     7.3484   7.3484

          k = 0.0000-0.2579 0.0000 ( 36445 PWs)   bands (ev):

   -44.1421 -44.1421 -22.2596 -22.2596 -22.1693 -22.1693 -22.0765 -22.0764
    -8.0975  -7.8639  -7.1194  -6.9364  -6.1809  -5.4201  -4.8411  -4.7744
    -4.7261  -3.7934   0.3075   0.7865   0.9640   1.2119   1.3759   1.6347
     1.9884   2.1415   2.2715   2.8153   2.9284   3.0102   3.2737   3.4892
     3.5481   3.6630   3.8632   3.9564   4.1582   4.2516   4.3275   4.6891
     4.7150   5.3117   5.7033   5.9704   6.0194   6.0230   6.1066   6.7927
     7.0593   7.1195

          k = 0.0000-0.2579 0.1485 ( 36452 PWs)   bands (ev):

   -44.1421 -44.1421 -22.2596 -22.2596 -22.1693 -22.1693 -22.0765 -22.0764
    -8.0706  -7.9086  -7.0796  -6.9543  -6.1110  -5.6177  -4.8222  -4.7484
    -4.5481  -3.9032   0.3831   0.9322   0.9693   1.0239   1.1823   1.8851
     2.0070   2.0801   2.1140   2.8379   2.9164   3.0720   3.3359   3.4925
     3.6613   3.6781   3.9082   3.9173   4.1933   4.2413   4.2731   4.6886
     4.7096   4.8914   5.9006   5.9698   6.0094   6.1682   6.3864   6.6207
     6.8760   7.0346

          k = 0.0000-0.2579-0.2971 ( 36454 PWs)   bands (ev):

   -44.1421 -44.1421 -22.2596 -22.2596 -22.1693 -22.1693 -22.0765 -22.0765
    -7.9978  -7.9978  -7.0067  -7.0067  -5.9083  -5.9083  -4.7850  -4.7850
    -4.1891  -4.1891   0.6163   0.6163   1.0704   1.0704   1.3639   1.3639
     2.0562   2.0562   2.6208   2.6208   2.8823   2.8823   3.4751   3.4751
     3.7790   3.7790   4.0640   4.0640   4.1176   4.1176   4.3706   4.3706
     4.6970   4.6970   5.9538   5.9538   6.2686   6.2686   6.5107   6.5107
     6.7923   6.7923

          k = 1.5243 0.0000 0.0000 ( 36439 PWs)   bands (ev):

   -44.1408 -44.1408 -22.2529 -22.2529 -22.2020 -22.2020 -22.0727 -22.0726
    -7.6077  -7.3895  -6.9059  -6.7700  -5.9389  -5.2501  -5.0275  -4.6618
    -4.5731  -4.4740   0.1153   0.5431   0.6729   1.0552   1.1922   1.6067
     1.6746   1.7252   1.9187   2.0448   2.2120   2.3630   2.5058   3.2506
     3.4755   3.4824   3.5489   3.6232   3.7052   3.7543   3.8798   4.1469
     4.3039   4.9509   5.7382   6.0214   6.3021   6.8141   6.8554   6.9512
     7.3235   7.5221

          k = 1.5243 0.0000 0.1485 ( 36476 PWs)   bands (ev):

   -44.1408 -44.1408 -22.2529 -22.2529 -22.2020 -22.2020 -22.0727 -22.0727
    -7.5828  -7.4320  -6.8768  -6.7843  -5.8705  -5.4353  -4.8860  -4.6238
    -4.6225  -4.4826   0.1708   0.5370   0.7570   0.8720   1.1830   1.3438
     1.7001   1.7179   1.9650   2.0209   2.4221   2.4940   2.8433   3.1952
     3.4124   3.4805   3.5121   3.5601   3.6750   3.7304   3.8942   4.1361
     4.1795   4.5280   6.1417   6.2991   6.3340   6.7013   6.8445   6.9972
     7.1398   7.5026

          k = 1.5243 0.0000-0.2971 ( 36508 PWs)   bands (ev):

   -44.1408 -44.1408 -22.2529 -22.2529 -22.2020 -22.2020 -22.0727 -22.0727
    -7.5153  -7.5153  -6.8241  -6.8241  -5.6851  -5.6851  -4.7347  -4.7347
    -4.5382  -4.5382   0.3422   0.3422   0.9688   0.9688   0.9996   0.9996
     1.7121   1.7121   1.9875   1.9875   2.7691   2.7691   3.0591   3.0591
     3.3690   3.3690   3.4956   3.4956   3.6768   3.6768   3.9138   3.9138
     4.2383   4.2383   6.3732   6.3732   6.6935   6.6935   6.8201   6.8201
     7.2572   7.2572

          k =-0.2541-0.4514 0.0000 ( 36444 PWs)   bands (ev):

   -44.1417 -44.1417 -22.2576 -22.2576 -22.1789 -22.1789 -22.0754 -22.0753
    -7.9672  -7.7423  -7.0507  -6.8901  -6.1360  -5.3750  -4.8637  -4.7552
    -4.6788  -3.9670   0.4020   0.9134   1.0054   1.2459   1.3421   1.6707
     1.6715   1.6912   1.8884   2.4147   2.4911   3.2460   3.3983   3.4707
     3.4813   3.6953   3.7765   3.8616   3.9180   4.0700   4.1026   4.2191
     4.3188   4.6903   6.0776   6.1256   6.3444   6.5685   6.5946   6.8410
     6.8465   7.0275

          k =-0.2541-0.4514 0.1485 ( 36461 PWs)   bands (ev):

   -44.1417 -44.1417 -22.2576 -22.2576 -22.1789 -22.1789 -22.0754 -22.0753
    -7.9411  -7.7850  -7.0168  -6.9067  -6.0627  -5.5691  -4.8087  -4.7005
    -4.5864  -4.0520   0.4650   0.8677   0.9443   1.2616   1.3328   1.3828
     1.7725   1.7892   2.2541   2.4207   2.4758   2.9730   3.3501   3.3981
     3.5205   3.5364   3.7402   3.8815   3.9088   3.9764   4.2367   4.2906
     4.6645   4.8070   5.8704   6.0586   6.1585   6.3769   6.5686   6.7424
     7.1397   7.2202

          k =-0.2541-0.4514-0.2971 ( 36490 PWs)   bands (ev):

   -44.1417 -44.1417 -22.2576 -22.2576 -22.1789 -22.1789 -22.0754 -22.0754
    -7.8708  -7.8708  -6.9538  -6.9538  -5.8562  -5.8562  -4.7524  -4.7524
    -4.2828  -4.2828   0.6411   0.6411   1.0642   1.0642   1.3366   1.3366
     1.8872   1.8872   2.4289   2.4289   2.6571   2.6571   3.2588   3.2588
     3.4283   3.4283   3.8603   3.8603   3.9919   3.9919   4.2650   4.2650
     4.9979   4.9979   5.7148   5.7148   6.1856   6.1856   6.6306   6.6306
     7.3437   7.3437

          k = 0.0000-0.3869 0.0000 ( 36477 PWs)   bands (ev):

   -44.1421 -44.1421 -22.2596 -22.2596 -22.1693 -22.1693 -22.0765 -22.0764
    -8.0920  -7.8629  -7.1130  -6.9376  -6.1999  -5.4259  -4.8618  -4.7639
    -4.7208  -3.7944   0.3295   0.7968   1.1112   1.2741   1.4005   1.7085
     1.9882   2.1402   2.2698   2.8342   2.9347   3.0367   3.1639   3.2470
     3.5108   3.6467   3.8352   3.9598   4.0186   4.0758   4.3279   4.6592
     4.7128   5.2889   5.7521   6.0387   6.0473   6.0747   6.1642   6.7548
     7.0472   7.0592

          k = 0.0000-0.3869 0.1485 ( 36452 PWs)   bands (ev):

   -44.1421 -44.1421 -22.2596 -22.2596 -22.1693 -22.1693 -22.0765 -22.0764
    -8.0655  -7.9064  -7.0757  -6.9554  -6.1272  -5.6242  -4.8365  -4.7431
    -4.5452  -3.9034   0.4039   0.9507   1.0004   1.1692   1.2567   1.8987
     2.0067   2.1130   2.1257   2.8549   2.9245   3.0368   3.1901   3.3341
     3.5154   3.7502   3.8909   3.9274   4.0642   4.1132   4.2311   4.6713
     4.7068   4.8903   5.9516   6.0168   6.0469   6.1833   6.3994   6.5907
     6.8786   6.9790

          k = 0.0000-0.3869-0.2971 ( 36454 PWs)   bands (ev):

   -44.1421 -44.1421 -22.2596 -22.2596 -22.1693 -22.1693 -22.0765 -22.0765
    -7.9937  -7.9937  -7.0065  -7.0065  -5.9189  -5.9189  -4.7895  -4.7895
    -4.1877  -4.1877   0.6379   0.6379   1.1869   1.1869   1.3817   1.3817
     2.0558   2.0558   2.6469   2.6469   2.8946   2.8946   3.2327   3.2327
     3.8287   3.8287   4.0130   4.0130   4.0428   4.0428   4.3318   4.3318
     4.6910   4.6910   5.9708   5.9708   6.2980   6.2980   6.5189   6.5189
     6.7523   6.7523

          k =-2.0325 0.0000 0.0000 ( 36452 PWs)   bands (ev):

   -44.1421 -44.1421 -22.2596 -22.2596 -22.1693 -22.1693 -22.0765 -22.0764
    -8.0897  -7.8625  -7.1106  -6.9377  -6.2080  -5.4283  -4.8695  -4.7586
    -4.7204  -3.7949   0.3355   0.8014   1.2380   1.2450   1.4101   1.7527
     1.9882   2.1396   2.2697   2.8426   2.9371   3.0521   3.0596   3.1282
     3.4883   3.8067   3.8234   3.8752   3.9629   3.9913   4.3281   4.6469
     4.7120   5.2816   5.7721   6.0467   6.0877   6.0909   6.1822   6.7148
     7.0332   7.0591

          k =-2.0325 0.0000 0.1485 ( 36456 PWs)   bands (ev):

   -44.1421 -44.1421 -22.2596 -22.2596 -22.1693 -22.1693 -22.0765 -22.0764
    -8.0633  -7.9055  -7.0743  -6.9556  -6.1340  -5.6268  -4.8420  -4.7413
    -4.5440  -3.9035   0.4093   0.9585   1.0126   1.2547   1.2841   1.9051
     2.0067   2.1127   2.1487   2.8623   2.9277   2.9816   3.0722   3.3058
     3.4858   3.8540   3.8797   3.9452   3.9766   4.0182   4.2266   4.6644
     4.7057   4.8903   5.9754   6.0391   6.0535   6.1896   6.4020   6.5655
     6.8797   6.9629

          k =-2.0325 0.0000-0.2971 ( 36460 PWs)   bands (ev):

   -44.1421 -44.1421 -22.2596 -22.2596 -22.1693 -22.1693 -22.0765 -22.0765
    -7.9921  -7.9921  -7.0064  -7.0064  -5.9232  -5.9232  -4.7914  -4.7914
    -4.1871  -4.1871   0.6436   0.6436   1.2470   1.2470   1.3912   1.3912
     2.0556   2.0556   2.6537   2.6537   2.8999   2.8999   3.1204   3.1204
     3.8989   3.8989   3.9303   3.9303   4.0338   4.0338   4.3182   4.3182
     4.6887   4.6887   5.9733   5.9733   6.3088   6.3088   6.5225   6.5225
     6.7344   6.7344

     the Fermi energy is     5.5042 ev

!    total energy              =   -4240.94605023 Ry

     total all-electron energy =   -150287.639745 Ry
     estimated scf accuracy    <          2.6E-11 Ry
     smearing contrib. (-TS)   =       0.00000001 Ry
     internal energy E=F+TS    =   -4240.94605024 Ry

     The total energy is F=E-TS. E is the sum of the following terms:
     one-electron contribution =    -168.02204230 Ry
     hartree contribution      =     117.47378974 Ry
     xc contribution           =    -201.57072559 Ry
     ewald contribution        =    -221.29504573 Ry
     one-center paw contrib.   =   -3767.53202636 Ry

     convergence has been achieved in  15 iterations

     Forces acting on atoms (cartesian axes, Ry/au):

     atom    1 type  1   force =     0.00000000    0.01167990    0.00000000
     atom    2 type  1   force =    -0.00000000   -0.01167990    0.00000000
     atom    3 type  2   force =     0.00000000   -0.00007190    0.00000000
     atom    4 type  2   force =     0.00000000    0.00007190    0.00000000
     atom    5 type  2   force =     0.00000000   -0.00268856   -0.00135919
     atom    6 type  2   force =     0.00000000    0.00268856    0.00135919
     atom    7 type  2   force =     0.00000000   -0.00268856    0.00135919
     atom    8 type  2   force =     0.00000000    0.00268856   -0.00135919
     atom    9 type  2   force =     0.00000000   -0.01992150   -0.02212901
     atom   10 type  2   force =     0.00000000    0.01992150    0.02212901
     atom   11 type  2   force =     0.00000000   -0.01992150    0.02212901
     atom   12 type  2   force =     0.00000000    0.01992150   -0.02212901

     Total force =     0.062092     Total SCF correction =     0.000010


     Computing stress (Cartesian axis) and pressure

          total   stress  (Ry/bohr**3)                   (kbar)     P=        5.15
   0.00003593   0.00000000   0.00000000            5.28        0.00        0.00
  -0.00000000   0.00002182   0.00000000           -0.00        3.21        0.00
   0.00000000   0.00000000   0.00004729            0.00        0.00        6.96

 
     init_run     :     18.75s CPU     19.23s WALL (       1 calls)
     electrons    :    791.04s CPU    800.15s WALL (       1 calls)
     forces       :      6.65s CPU      6.86s WALL (       1 calls)
     stress       :     41.90s CPU     42.52s WALL (       1 calls)

     Called by init_run:
     wfcinit      :     14.37s CPU     14.54s WALL (       1 calls)
     potinit      :      1.39s CPU      1.44s WALL (       1 calls)
     hinit0       :      1.69s CPU      1.74s WALL (       1 calls)

     Called by electrons:
     c_bands      :    655.24s CPU    657.91s WALL (      16 calls)
     sum_band     :    114.26s CPU    117.79s WALL (      16 calls)
     v_of_rho     :      4.76s CPU      5.00s WALL (      16 calls)
     newd         :     12.06s CPU     14.89s WALL (      16 calls)
     PAW_pot      :      4.98s CPU      5.00s WALL (      16 calls)
     mix_rho      :      0.67s CPU      0.69s WALL (      16 calls)

     Called by c_bands:
     init_us_2    :      9.82s CPU      9.87s WALL (    2205 calls)
     cegterg      :    589.78s CPU    592.08s WALL (    1008 calls)

     Called by *egterg:
     cdiaghg      :     22.11s CPU     22.17s WALL (    6514 calls)
     h_psi        :    456.52s CPU    458.71s WALL (    6640 calls)
     s_psi        :     36.41s CPU     36.47s WALL (    6640 calls)
     g_psi        :      1.60s CPU      1.61s WALL (    5569 calls)

     Called by h_psi:
     h_psi:calbec :     31.92s CPU     31.98s WALL (    6640 calls)
     vloc_psi     :    385.74s CPU    387.73s WALL (    6640 calls)
     add_vuspsi   :     36.30s CPU     36.35s WALL (    6640 calls)

     General routines
     calbec       :     42.92s CPU     43.01s WALL (    7963 calls)
     fft          :      2.93s CPU      3.03s WALL (     232 calls)
     ffts         :      0.07s CPU      0.07s WALL (      32 calls)
     fftw         :    354.26s CPU    356.06s WALL (  359142 calls)
     interpolate  :      0.26s CPU      0.26s WALL (      16 calls)
 
     Parallel routines
 
     PWSCF        :  14m18.59s CPU  14m29.24s WALL

 
   This run was terminated on:  15:29:57  19Nov2021            

=------------------------------------------------------------------------------=
   JOB DONE.
=------------------------------------------------------------------------------=
