
     Program PWSCF v.6.8 starts on 19Nov2021 at 15:15:51 

     This program is part of the open-source Quantum ESPRESSO suite
     for quantum simulation of materials; please cite
         "P. Giannozzi et al., J. Phys.:Condens. Matter 21 395502 (2009);
         "P. Giannozzi et al., J. Phys.:Condens. Matter 29 465901 (2017);
         "P. Giannozzi et al., J. Chem. Phys. 152 154105 (2020);
          URL http://www.quantum-espresso.org", 
     in publications or presentations arising from this work. More details at
     http://www.quantum-espresso.org/quote

     Parallel version (MPI), running on    10 processors

     MPI processes distributed on     1 nodes
     R & G space division:  proc/nbgrp/npool/nimage =      10
     67628 MiB available memory on the printing compute node when the environment starts
 
     Waiting for input...
     Reading input from standard input

     Current dimensions of program PWSCF are:
     Max number of different atomic species (ntypx) = 10
     Max number of k-points (npk) =  40000
     Max angular momentum in pseudopotentials (lmaxx) =  4
     file Zr.pbe-spn-kjpaw_psl.1.0.0.UPF: wavefunction(s)  4S 4P renormalized
     file Te.pbe-n-kjpaw_psl.1.0.0.UPF: wavefunction(s)  5S 5P renormalized
     Message from routine setup:
     using ibrav=0 with symmetry is DISCOURAGED, use correct ibrav instead

     Subspace diagonalization in iterative solution of the eigenvalue problem:
     a serial algorithm will be used

 
     Parallelization info
     --------------------
     sticks:   dense  smooth     PW     G-vecs:    dense   smooth      PW
     Min         734     293     87               115340    29174    4753
     Max         735     295     88               115345    29176    4760
     Sum        7345    2937    873              1153415   291749   47557
 
     Using Slab Decomposition
 


     bravais-lattice index     =            0
     lattice parameter (alat)  =      15.5510  a.u.
     unit-cell volume          =    3018.5011 (a.u.)^3
     number of atoms/cell      =           12
     number of atomic types    =            2
     number of electrons       =        84.00
     number of Kohn-Sham states=           50
     kinetic-energy cutoff     =      80.0000  Ry
     charge density cutoff     =     800.0000  Ry
     scf convergence threshold =      1.0E-10
     mixing beta               =       0.7000
     number of iterations used =            8  plain     mixing
     Exchange-correlation= SLA  PW   PBX  PBC
                           (   1   4   3   4   0   0   0)

     celldm(1)=  15.551040  celldm(2)=   0.000000  celldm(3)=   0.000000
     celldm(4)=   0.000000  celldm(5)=   0.000000  celldm(6)=   0.000000

     crystal axes: (cart. coord. in units of alat)
               a(1) = (   0.246007  -0.969268   0.000000 )  
               a(2) = (   0.246007   0.969268   0.000000 )  
               a(3) = (   0.000000   0.000000   1.683031 )  

     reciprocal axes: (cart. coord. in units 2 pi/alat)
               b(1) = (  2.032465 -0.515853  0.000000 )  
               b(2) = (  2.032465  0.515853  0.000000 )  
               b(3) = (  0.000000  0.000000  0.594166 )  


     PseudoPot. # 1 for Zr read from file:
     pseudo/Zr.pbe-spn-kjpaw_psl.1.0.0.UPF
     MD5 check sum: 02112c41713a0468aff2bb39ef194e36
     Pseudo is Projector augmented-wave + core cor, Zval = 12.0
     Generated using &quot;atomic&quot; code by A. Dal Corso  v.6.2.2
     Shape of augmentation charge: PSQ
     Using radial grid of 1225 points,  6 beta functions with: 
                l(1) =   0
                l(2) =   0
                l(3) =   1
                l(4) =   1
                l(5) =   2
                l(6) =   2
     Q(r) pseudized with 0 coefficients 


     PseudoPot. # 2 for Te read from file:
     pseudo/Te.pbe-n-kjpaw_psl.1.0.0.UPF
     MD5 check sum: 66247bff2bd9dbf220fbb0bf5ab56e9d
     Pseudo is Projector augmented-wave + core cor, Zval =  6.0
     Generated using &quot;atomic&quot; code by A. Dal Corso  v.6.3
     Shape of augmentation charge: PSQ
     Using radial grid of 1245 points,  6 beta functions with: 
                l(1) =   0
                l(2) =   0
                l(3) =   1
                l(4) =   1
                l(5) =   2
                l(6) =   2
     Q(r) pseudized with 0 coefficients 


     atomic species   valence    mass     pseudopotential
        Zr            12.00    91.22000     Zr( 1.00)
        Te             6.00   127.60000     Te( 1.00)

      8 Sym. Ops., with inversion, found ( 4 have fractional translation)



   Cartesian axes

     site n.     atom                  positions (alat units)
         1           Zr  tau(   1) = (   0.0000000   0.6002527   0.4207578  )
         2           Zr  tau(   2) = (   0.2460067   0.3690154   1.2622733  )
         3           Te  tau(   3) = (   0.2460067   0.3341408   0.4207578  )
         4           Te  tau(   4) = (   0.0000000   0.6351273   1.2622733  )
         5           Te  tau(   5) = (   0.2460067   0.8122632   0.2537272  )
         6           Te  tau(   6) = (   0.0000000   0.1570049   1.4293039  )
         7           Te  tau(   7) = (   0.2460067   0.8122632   0.5877884  )
         8           Te  tau(   8) = (   0.0000000   0.1570049   1.0952427  )
         9           Te  tau(   9) = (   0.0000000   0.4242725   0.7398322  )
        10           Te  tau(  10) = (   0.2460067   0.5449957   0.9431989  )
        11           Te  tau(  11) = (   0.0000000   0.4242725   0.1016834  )
        12           Te  tau(  12) = (   0.2460067   0.5449957   1.5813477  )

     number of k points=    63  Methfessel-Paxton smearing, width (Ry)=  0.0030
                       cart. coord. in units 2pi/alat
        k(    1) = (   0.0000000   0.0000000   0.0000000), wk =   0.0078125
        k(    2) = (   0.0000000   0.0000000   0.1485415), wk =   0.0156250
        k(    3) = (   0.0000000   0.0000000  -0.2970830), wk =   0.0078125
        k(    4) = (   0.2540581   0.0644816   0.0000000), wk =   0.0312500
        k(    5) = (   0.2540581   0.0644816   0.1485415), wk =   0.0625000
        k(    6) = (   0.2540581   0.0644816  -0.2970830), wk =   0.0312500
        k(    7) = (   0.5081162   0.1289633   0.0000000), wk =   0.0312500
        k(    8) = (   0.5081162   0.1289633   0.1485415), wk =   0.0625000
        k(    9) = (   0.5081162   0.1289633  -0.2970830), wk =   0.0312500
        k(   10) = (   0.7621743   0.1934449   0.0000000), wk =   0.0312500
        k(   11) = (   0.7621743   0.1934449   0.1485415), wk =   0.0625000
        k(   12) = (   0.7621743   0.1934449  -0.2970830), wk =   0.0312500
        k(   13) = (  -1.0162324  -0.2579266   0.0000000), wk =   0.0156250
        k(   14) = (  -1.0162324  -0.2579266   0.1485415), wk =   0.0312500
        k(   15) = (  -1.0162324  -0.2579266  -0.2970830), wk =   0.0156250
        k(   16) = (   0.5081162   0.0000000   0.0000000), wk =   0.0156250
        k(   17) = (   0.5081162   0.0000000   0.1485415), wk =   0.0312500
        k(   18) = (   0.5081162   0.0000000  -0.2970830), wk =   0.0156250
        k(   19) = (   0.7621743   0.0644816   0.0000000), wk =   0.0312500
        k(   20) = (   0.7621743   0.0644816   0.1485415), wk =   0.0625000
        k(   21) = (   0.7621743   0.0644816  -0.2970830), wk =   0.0312500
        k(   22) = (   1.0162324   0.1289633   0.0000000), wk =   0.0312500
        k(   23) = (   1.0162324   0.1289633   0.1485415), wk =   0.0625000
        k(   24) = (   1.0162324   0.1289633  -0.2970830), wk =   0.0312500
        k(   25) = (  -0.7621743  -0.3224082   0.0000000), wk =   0.0312500
        k(   26) = (  -0.7621743  -0.3224082   0.1485415), wk =   0.0625000
        k(   27) = (  -0.7621743  -0.3224082  -0.2970830), wk =   0.0312500
        k(   28) = (  -0.5081162  -0.2579266   0.0000000), wk =   0.0312500
        k(   29) = (  -0.5081162  -0.2579266   0.1485415), wk =   0.0625000
        k(   30) = (  -0.5081162  -0.2579266  -0.2970830), wk =   0.0312500
        k(   31) = (  -0.2540581  -0.1934449   0.0000000), wk =   0.0312500
        k(   32) = (  -0.2540581  -0.1934449   0.1485415), wk =   0.0625000
        k(   33) = (  -0.2540581  -0.1934449  -0.2970830), wk =   0.0312500
        k(   34) = (   0.0000000  -0.1289633   0.0000000), wk =   0.0156250
        k(   35) = (   0.0000000  -0.1289633   0.1485415), wk =   0.0312500
        k(   36) = (   0.0000000  -0.1289633  -0.2970830), wk =   0.0156250
        k(   37) = (   1.0162324   0.0000000   0.0000000), wk =   0.0156250
        k(   38) = (   1.0162324   0.0000000   0.1485415), wk =   0.0312500
        k(   39) = (   1.0162324   0.0000000  -0.2970830), wk =   0.0156250
        k(   40) = (   1.2702905   0.0644816   0.0000000), wk =   0.0312500
        k(   41) = (   1.2702905   0.0644816   0.1485415), wk =   0.0625000
        k(   42) = (   1.2702905   0.0644816  -0.2970830), wk =   0.0312500
        k(   43) = (  -0.5081162  -0.3868899   0.0000000), wk =   0.0312500
        k(   44) = (  -0.5081162  -0.3868899   0.1485415), wk =   0.0625000
        k(   45) = (  -0.5081162  -0.3868899  -0.2970830), wk =   0.0312500
        k(   46) = (  -0.2540581  -0.3224082   0.0000000), wk =   0.0312500
        k(   47) = (  -0.2540581  -0.3224082   0.1485415), wk =   0.0625000
        k(   48) = (  -0.2540581  -0.3224082  -0.2970830), wk =   0.0312500
        k(   49) = (   0.0000000  -0.2579266   0.0000000), wk =   0.0156250
        k(   50) = (   0.0000000  -0.2579266   0.1485415), wk =   0.0312500
        k(   51) = (   0.0000000  -0.2579266  -0.2970830), wk =   0.0156250
        k(   52) = (   1.5243485   0.0000000   0.0000000), wk =   0.0156250
        k(   53) = (   1.5243485   0.0000000   0.1485415), wk =   0.0312500
        k(   54) = (   1.5243485   0.0000000  -0.2970830), wk =   0.0156250
        k(   55) = (  -0.2540581  -0.4513715   0.0000000), wk =   0.0312500
        k(   56) = (  -0.2540581  -0.4513715   0.1485415), wk =   0.0625000
        k(   57) = (  -0.2540581  -0.4513715  -0.2970830), wk =   0.0312500
        k(   58) = (   0.0000000  -0.3868899   0.0000000), wk =   0.0156250
        k(   59) = (   0.0000000  -0.3868899   0.1485415), wk =   0.0312500
        k(   60) = (   0.0000000  -0.3868899  -0.2970830), wk =   0.0156250
        k(   61) = (  -2.0324647   0.0000000   0.0000000), wk =   0.0078125
        k(   62) = (  -2.0324647   0.0000000   0.1485415), wk =   0.0156250
        k(   63) = (  -2.0324647   0.0000000  -0.2970830), wk =   0.0078125

     Dense  grid:  1153415 G-vectors     FFT dimensions: ( 144, 144, 240)

     Smooth grid:   291749 G-vectors     FFT dimensions: (  90,  90, 150)

     Estimated max dynamical RAM per process >     657.19 MB

     Estimated total dynamical RAM >       6.42 GB

     Initial potential from superposition of free atoms

     starting charge   83.99353, renormalised to   84.00000
     Starting wfcs are   66 randomized atomic wfcs
     Checking if some PAW data can be deallocated... 

     total cpu time spent up to now is       19.5 secs

     Self-consistent Calculation

     iteration #  1     ecut=    80.00 Ry     beta= 0.70
     Davidson diagonalization with overlap
     ethr =  1.00E-02,  avg # of iterations =  2.2

     Threshold (ethr) on eigenvalues was too large:
     Diagonalizing with lowered threshold

     Davidson diagonalization with overlap
     ethr =  4.66E-04,  avg # of iterations =  4.0

     total cpu time spent up to now is      102.2 secs

     total energy              =   -4240.70257952 Ry
     estimated scf accuracy    <       0.45187387 Ry

     iteration #  2     ecut=    80.00 Ry     beta= 0.70
     Davidson diagonalization with overlap
     ethr =  5.38E-04,  avg # of iterations =  8.3

     total cpu time spent up to now is      165.1 secs

     total energy              =   -4240.59905522 Ry
     estimated scf accuracy    <       2.05142152 Ry

     iteration #  3     ecut=    80.00 Ry     beta= 0.70
     Davidson diagonalization with overlap
     ethr =  5.38E-04,  avg # of iterations =  5.3

     total cpu time spent up to now is      215.8 secs

     total energy              =   -4240.92115154 Ry
     estimated scf accuracy    <       0.00780733 Ry

     iteration #  4     ecut=    80.00 Ry     beta= 0.70
     Davidson diagonalization with overlap
     c_bands:  1 eigenvalues not converged
     c_bands:  1 eigenvalues not converged
     c_bands:  2 eigenvalues not converged
     c_bands:  2 eigenvalues not converged
     c_bands:  1 eigenvalues not converged
     c_bands:  1 eigenvalues not converged
     c_bands:  1 eigenvalues not converged
     c_bands:  1 eigenvalues not converged
     c_bands:  2 eigenvalues not converged
     c_bands:  2 eigenvalues not converged
     c_bands:  1 eigenvalues not converged
     c_bands:  3 eigenvalues not converged
     c_bands:  2 eigenvalues not converged
     c_bands:  1 eigenvalues not converged
     c_bands:  2 eigenvalues not converged
     c_bands:  2 eigenvalues not converged
     c_bands:  1 eigenvalues not converged
     c_bands:  1 eigenvalues not converged
     c_bands:  2 eigenvalues not converged
     c_bands:  1 eigenvalues not converged
     ethr =  9.29E-06,  avg # of iterations = 17.9

     total cpu time spent up to now is      314.1 secs

     total energy              =   -4240.93045170 Ry
     estimated scf accuracy    <       0.03733817 Ry

     iteration #  5     ecut=    80.00 Ry     beta= 0.70
     Davidson diagonalization with overlap
     ethr =  9.29E-06,  avg # of iterations =  7.1

     total cpu time spent up to now is      365.6 secs

     total energy              =   -4240.93225411 Ry
     estimated scf accuracy    <       0.00621461 Ry

     iteration #  6     ecut=    80.00 Ry     beta= 0.70
     Davidson diagonalization with overlap
     ethr =  7.40E-06,  avg # of iterations =  2.8

     total cpu time spent up to now is      404.8 secs

     total energy              =   -4240.93276743 Ry
     estimated scf accuracy    <       0.00095037 Ry

     iteration #  7     ecut=    80.00 Ry     beta= 0.70
     Davidson diagonalization with overlap
     ethr =  1.13E-06,  avg # of iterations =  9.3

     total cpu time spent up to now is      467.8 secs

     total energy              =   -4240.93320206 Ry
     estimated scf accuracy    <       0.00084682 Ry

     iteration #  8     ecut=    80.00 Ry     beta= 0.70
     Davidson diagonalization with overlap
     ethr =  1.01E-06,  avg # of iterations =  2.1

     total cpu time spent up to now is      504.0 secs

     total energy              =   -4240.93323412 Ry
     estimated scf accuracy    <       0.00011495 Ry

     iteration #  9     ecut=    80.00 Ry     beta= 0.70
     Davidson diagonalization with overlap
     ethr =  1.37E-07,  avg # of iterations =  6.2

     total cpu time spent up to now is      554.2 secs

     total energy              =   -4240.93327277 Ry
     estimated scf accuracy    <       0.00001441 Ry

     iteration # 10     ecut=    80.00 Ry     beta= 0.70
     Davidson diagonalization with overlap
     ethr =  1.72E-08,  avg # of iterations =  3.7

     total cpu time spent up to now is      594.3 secs

     total energy              =   -4240.93327521 Ry
     estimated scf accuracy    <       0.00000104 Ry

     iteration # 11     ecut=    80.00 Ry     beta= 0.70
     Davidson diagonalization with overlap
     ethr =  1.24E-09,  avg # of iterations =  8.2

     total cpu time spent up to now is      654.0 secs

     total energy              =   -4240.93327616 Ry
     estimated scf accuracy    <       0.00000044 Ry

     iteration # 12     ecut=    80.00 Ry     beta= 0.70
     Davidson diagonalization with overlap
     ethr =  5.28E-10,  avg # of iterations =  2.9

     total cpu time spent up to now is      692.5 secs

     total energy              =   -4240.93327621 Ry
     estimated scf accuracy    <       0.00000004 Ry

     iteration # 13     ecut=    80.00 Ry     beta= 0.70
     Davidson diagonalization with overlap
     ethr =  4.62E-11,  avg # of iterations =  7.8

     total cpu time spent up to now is      750.4 secs

     total energy              =   -4240.93327623 Ry
     estimated scf accuracy    <       0.00000002 Ry

     iteration # 14     ecut=    80.00 Ry     beta= 0.70
     Davidson diagonalization with overlap
     ethr =  2.33E-11,  avg # of iterations =  2.3

     total cpu time spent up to now is      787.1 secs

     total energy              =   -4240.93327623 Ry
     estimated scf accuracy    <          4.7E-09 Ry

     iteration # 15     ecut=    80.00 Ry     beta= 0.70
     Davidson diagonalization with overlap
     ethr =  5.65E-12,  avg # of iterations =  6.4

     total cpu time spent up to now is      834.8 secs

     total energy              =   -4240.93327624 Ry
     estimated scf accuracy    <          5.3E-10 Ry

     iteration # 16     ecut=    80.00 Ry     beta= 0.70
     Davidson diagonalization with overlap
     ethr =  6.30E-13,  avg # of iterations =  4.6

     total cpu time spent up to now is      875.9 secs

     total energy              =   -4240.93327624 Ry
     estimated scf accuracy    <          1.2E-10 Ry

     iteration # 17     ecut=    80.00 Ry     beta= 0.70
     Davidson diagonalization with overlap
     ethr =  1.39E-13,  avg # of iterations =  5.9

     total cpu time spent up to now is      919.8 secs

     End of self-consistent calculation

          k = 0.0000 0.0000 0.0000 ( 36359 PWs)   bands (ev):

   -44.1502 -44.1502 -22.2630 -22.2630 -22.1739 -22.1739 -22.0871 -22.0870
    -8.2770  -8.0886  -7.1324  -6.9682  -6.0713  -5.4018  -4.7839  -4.7349
    -4.6827  -3.7608   0.2090   0.8012   0.8374   1.1644   1.2652   1.5326
     1.7787   1.8833   2.2605   2.8154   2.9158   2.9745   3.2358   3.3923
     3.8666   3.9570   4.1035   4.1064   4.3400   4.3701   4.4806   4.6838
     4.7452   5.2687   5.6253   5.8624   5.8819   5.9185   6.0865   6.7021
     7.1123   7.2852

          k = 0.0000 0.0000 0.1485 ( 36415 PWs)   bands (ev):

   -44.1502 -44.1502 -22.2630 -22.2630 -22.1739 -22.1739 -22.0871 -22.0870
    -8.2539  -8.1221  -7.0999  -6.9857  -6.0095  -5.5711  -4.7740  -4.7415
    -4.4858  -3.8680   0.2878   0.8492   0.9236   0.9377   1.1217   1.7923
     1.8507   1.8659   1.9984   2.8330   2.9036   3.0135   3.3766   3.4808
     3.8117   4.0039   4.0707   4.1230   4.2903   4.3827   4.4819   4.6944
     4.7369   4.8396   5.8331   5.8594   5.8620   6.2249   6.2725   6.5668
     6.9186   7.1040

          k = 0.0000 0.0000-0.2971 ( 36410 PWs)   bands (ev):

   -44.1502 -44.1502 -22.2630 -22.2630 -22.1739 -22.1739 -22.0870 -22.0870
    -8.1930  -8.1930  -7.0355  -7.0355  -5.8297  -5.8297  -4.7575  -4.7575
    -4.1451  -4.1451   0.5201   0.5201   0.9836   0.9836   1.3493   1.3493
     1.8273   1.8273   2.5400   2.5400   2.8710   2.8710   3.6209   3.6209
     3.9315   3.9315   4.1321   4.1321   4.2913   4.2913   4.4573   4.4573
     4.7164   4.7164   5.8523   5.8523   6.2114   6.2114   6.5535   6.5535
     6.7435   6.7435

          k = 0.2541 0.0645 0.0000 ( 36396 PWs)   bands (ev):

   -44.1498 -44.1498 -22.2611 -22.2611 -22.1834 -22.1834 -22.0860 -22.0859
    -8.1504  -7.9642  -7.0684  -6.9187  -6.0130  -5.3534  -4.7499  -4.7296
    -4.6883  -3.9475   0.2871   0.8532   0.9123   0.9609   1.2558   1.4691
     1.4724   1.5256   1.7654   2.5975   2.6300   3.1876   3.3072   3.6957
     3.7806   3.7974   3.8915   3.9189   4.0847   4.2733   4.3421   4.4385
     4.4596   4.6102   5.9472   5.9823   6.1536   6.4408   6.4614   6.7088
     7.0530   7.2407

          k = 0.2541 0.0645 0.1485 ( 36423 PWs)   bands (ev):

   -44.1498 -44.1498 -22.2611 -22.2611 -22.1834 -22.1834 -22.0860 -22.0859
    -8.1276  -7.9973  -7.0386  -6.9346  -5.9512  -5.5201  -4.7367  -4.6973
    -4.5515  -4.0314   0.3547   0.7585   0.9004   1.0000   1.1422   1.2192
     1.5685   1.7118   2.0608   2.5994   2.6122   2.9421   3.4230   3.4453
     3.5170   3.8600   3.9735   4.0406   4.0702   4.2270   4.4158   4.4568
     4.6679   4.7330   5.8903   6.0160   6.1143   6.2190   6.2742   6.8190
     7.2113   7.2359

          k = 0.2541 0.0645-0.2971 ( 36436 PWs)   bands (ev):

   -44.1498 -44.1498 -22.2611 -22.2611 -22.1834 -22.1834 -22.0860 -22.0860
    -8.0674  -8.0674  -6.9799  -6.9799  -5.7731  -5.7731  -4.7170  -4.7170
    -4.2572  -4.2572   0.5409   0.5409   0.9418   0.9418   1.1132   1.1132
     1.7262   1.7262   2.4857   2.4857   2.6470   2.6470   3.2850   3.2850
     3.6884   3.6884   4.0174   4.0174   4.1788   4.1788   4.4460   4.4460
     4.9086   4.9086   5.7907   5.7907   6.1372   6.1372   6.4798   6.4798
     7.3536   7.3536

          k = 0.5081 0.1290 0.0000 ( 36499 PWs)   bands (ev):

   -44.1490 -44.1490 -22.2564 -22.2564 -22.2063 -22.2063 -22.0834 -22.0833
    -7.7796  -7.5981  -6.9153  -6.7962  -5.8482  -5.2328  -4.9901  -4.6226
    -4.5756  -4.4914  -0.0195   0.4251   0.7097   0.9388   1.1614   1.3089
     1.6341   1.7166   1.7561   2.0769   2.1418   2.4198   2.5831   3.4347
     3.4714   3.5649   3.5667   3.6933   3.7642   3.8537   4.0053   4.2347
     4.3038   4.8477   5.8741   6.1787   6.2943   6.6111   6.6509   7.0656
     7.4275   7.5490

          k = 0.5081 0.1290 0.1485 ( 36476 PWs)   bands (ev):

   -44.1490 -44.1490 -22.2564 -22.2564 -22.2063 -22.2063 -22.0834 -22.0833
    -7.7576  -7.6308  -6.8913  -6.8089  -5.7895  -5.3997  -4.8546  -4.6141
    -4.5983  -4.5032   0.0365   0.3867   0.7852   0.8358   1.1565   1.2558
     1.4015   1.5843   2.0022   2.0900   2.3071   2.5049   2.8737   3.3569
     3.4571   3.4957   3.5397   3.6981   3.7641   3.7952   3.8844   4.2603
     4.3017   4.4629   6.2544   6.3052   6.4424   6.6106   6.7115   6.9385
     7.2841   7.5272

          k = 0.5081 0.1290-0.2971 ( 36466 PWs)   bands (ev):

   -44.1490 -44.1490 -22.2564 -22.2564 -22.2063 -22.2063 -22.0834 -22.0834
    -7.6993  -7.6993  -6.8448  -6.8448  -5.6262  -5.6262  -4.7056  -4.7056
    -4.5473  -4.5473   0.2007   0.2007   0.9490   0.9490   0.9843   0.9843
     1.4674   1.4674   2.0550   2.0550   2.6496   2.6496   3.1866   3.1866
     3.3868   3.3868   3.5868   3.5868   3.7632   3.7632   3.9221   3.9221
     4.3430   4.3430   6.4874   6.4874   6.5726   6.5726   6.8910   6.8910
     7.2560   7.2561

          k = 0.7622 0.1934 0.0000 ( 36521 PWs)   bands (ev):

   -44.1481 -44.1481 -22.2516 -22.2516 -22.2291 -22.2291 -22.0808 -22.0807
    -7.2069  -7.0174  -6.7711  -6.6521  -5.7300  -5.5397  -5.1530  -5.1310
    -4.4950  -4.4568  -0.2466   0.0248   0.1793   0.9080   0.9183   1.3024
     1.4896   1.5964   2.0159   2.1749   2.2267   2.2602   2.4586   2.8133
     2.9986   3.2339   3.3572   3.4507   3.5202   3.6681   3.7264   3.7528
     3.8738   4.5884   6.1966   6.4698   6.5776   6.9492   6.9735   7.0283
     7.3953   7.6320

          k = 0.7622 0.1934 0.1485 ( 36503 PWs)   bands (ev):

   -44.1481 -44.1481 -22.2516 -22.2516 -22.2291 -22.2291 -22.0808 -22.0807
    -7.1860  -7.0566  -6.7435  -6.6639  -5.6985  -5.5627  -5.1544  -5.1406
    -4.4877  -4.4610  -0.2105   0.0861   0.1474   0.7754   0.9450   1.2498
     1.4985   1.5966   1.9998   2.0284   2.1573   2.5693   2.7070   2.9001
     2.9560   3.0256   3.2733   3.3473   3.5089   3.6013   3.7615   3.9299
     3.9891   4.4627   6.0338   6.4512   6.7572   6.9059   7.0426   7.0945
     7.1947   7.6672

          k = 0.7622 0.1934-0.2971 ( 36522 PWs)   bands (ev):

   -44.1481 -44.1481 -22.2516 -22.2516 -22.2291 -22.2291 -22.0808 -22.0808
    -7.1289  -7.1289  -6.6972  -6.6972  -5.6264  -5.6264  -5.1528  -5.1528
    -4.4729  -4.4729  -0.0865  -0.0865   0.4449   0.4449   1.0776   1.0776
     1.5548   1.5548   1.9913   1.9913   2.4453   2.4453   2.8490   2.8490
     2.9569   2.9569   3.2645   3.2645   3.5939   3.5939   3.9638   3.9638
     4.0748   4.0748   6.3976   6.3976   6.5380   6.5380   7.0727   7.0727
     7.5744   7.5744

          k =-1.0162-0.2579 0.0000 ( 36506 PWs)   bands (ev):

   -44.1477 -44.1477 -22.2496 -22.2496 -22.2385 -22.2385 -22.0797 -22.0797
    -6.7678  -6.7465  -6.3007  -6.2888  -6.2879  -6.2837  -5.1743  -5.1738
    -4.4368  -4.4067  -0.1549  -0.1364   0.1497   0.1711   1.0117   1.0191
     1.4666   1.6581   2.2075   2.3684   2.3943   2.4219   2.7893   2.8370
     2.8432   2.8845   3.1763   3.2298   3.2950   3.3499   3.4323   3.6105
     3.9793   4.2353   6.6864   6.7549   6.8211   6.8376   7.1260   7.2220
     7.2229   7.2959

          k =-1.0162-0.2579 0.1485 ( 36506 PWs)   bands (ev):

   -44.1477 -44.1477 -22.2496 -22.2496 -22.2385 -22.2385 -22.0797 -22.0797
    -6.7626  -6.7473  -6.3372  -6.3300  -6.2510  -6.2467  -5.1728  -5.1725
    -4.4345  -4.4132  -0.2464  -0.2407   0.3341   0.3423   1.0073   1.0163
     1.4588   1.5894   2.0791   2.2155   2.3355   2.3916   2.6389   2.6610
     2.9238   3.0232   3.1102   3.2141   3.5082   3.5480   3.5822   3.6946
     4.1056   4.2550   6.2980   6.3201   6.5909   6.6682   7.2349   7.2414
     7.4550   7.5260

          k =-1.0162-0.2579-0.2971 ( 36528 PWs)   bands (ev):

   -44.1477 -44.1477 -22.2496 -22.2496 -22.2385 -22.2385 -22.0797 -22.0797
    -6.7527  -6.7527  -6.3521  -6.3521  -6.2323  -6.2323  -5.1712  -5.1712
    -4.4260  -4.4260  -0.3040  -0.3040   0.5063   0.5063   0.9809   0.9809
     1.5019   1.5019   1.9562   1.9562   2.3428   2.3428   2.7564   2.7564
     2.8077   2.8077   3.2031   3.2031   3.6269   3.6269   3.7744   3.7744
     4.3131   4.3131   5.9512   5.9512   6.5319   6.5319   7.2505   7.2505
     7.5949   7.5950

          k = 0.5081 0.0000 0.0000 ( 36503 PWs)   bands (ev):

   -44.1490 -44.1490 -22.2564 -22.2564 -22.2063 -22.2063 -22.0834 -22.0833
    -7.7814  -7.5985  -6.9155  -6.7953  -5.8452  -5.2322  -4.9877  -4.6157
    -4.5837  -4.4909  -0.0152   0.4182   0.7101   0.9534   1.1576   1.2660
     1.6285   1.7051   1.7431   2.0842   2.1372   2.4080   2.5865   3.4268
     3.4928   3.5800   3.5921   3.6693   3.7769   3.9031   3.9852   4.2720
     4.3070   4.8377   5.8805   6.1541   6.3264   6.5747   6.5986   7.1040
     7.4323   7.5749

          k = 0.5081 0.0000 0.1485 ( 36453 PWs)   bands (ev):

   -44.1490 -44.1490 -22.2564 -22.2564 -22.2063 -22.2063 -22.0834 -22.0833
    -7.7593  -7.6315  -6.8911  -6.8079  -5.7870  -5.3989  -4.8513  -4.6147
    -4.5971  -4.5053   0.0398   0.3806   0.7897   0.8396   1.1659   1.2392
     1.3641   1.5620   2.0017   2.1051   2.2939   2.4921   2.8749   3.3721
     3.4754   3.4837   3.5518   3.7226   3.7463   3.8522   3.8548   4.2975
     4.3182   4.4446   6.2409   6.3155   6.4611   6.5673   6.6732   6.9727
     7.2968   7.5445

          k = 0.5081 0.0000-0.2971 ( 36452 PWs)   bands (ev):

   -44.1490 -44.1490 -22.2564 -22.2564 -22.2063 -22.2063 -22.0834 -22.0834
    -7.7006  -7.7006  -6.8440  -6.8440  -5.6246  -5.6246  -4.7023  -4.7023
    -4.5497  -4.5497   0.2005   0.2005   0.9480   0.9480   0.9881   0.9881
     1.4336   1.4336   2.0594   2.0594   2.6388   2.6388   3.1915   3.1915
     3.3958   3.3958   3.5896   3.5896   3.7947   3.7947   3.9087   3.9087
     4.3604   4.3604   6.5013   6.5013   6.5372   6.5372   6.9091   6.9091
     7.2577   7.2577

          k = 0.7622 0.0645 0.0000 ( 36505 PWs)   bands (ev):

   -44.1481 -44.1481 -22.2516 -22.2516 -22.2291 -22.2291 -22.0808 -22.0807
    -7.2116  -7.0182  -6.7684  -6.6491  -5.7305  -5.5377  -5.1517  -5.1315
    -4.4837  -4.4688  -0.2382   0.0229   0.1879   0.8985   0.9482   1.3155
     1.4599   1.5581   1.9784   2.1642   2.2633   2.2751   2.3996   2.7891
     2.9894   3.2768   3.3652   3.4571   3.5876   3.6962   3.7010   3.7287
     3.8414   4.6094   6.1941   6.4401   6.6034   6.9469   6.9881   7.0044
     7.4018   7.6738

          k = 0.7622 0.0645 0.1485 ( 36509 PWs)   bands (ev):

   -44.1481 -44.1481 -22.2516 -22.2516 -22.2291 -22.2291 -22.0808 -22.0807
    -7.1903  -7.0585  -6.7400  -6.6605  -5.6990  -5.5615  -5.1532  -5.1405
    -4.4798  -4.4694  -0.2022   0.0954   0.1430   0.7654   0.9720   1.2625
     1.4709   1.5925   1.9715   1.9845   2.1426   2.5695   2.7089   2.8891
     2.9460   3.0299   3.3114   3.3510   3.5533   3.5913   3.7348   3.9646
     3.9743   4.4548   6.0581   6.4273   6.7755   6.9061   7.0173   7.1331
     7.1674   7.6953

          k = 0.7622 0.0645-0.2971 ( 36472 PWs)   bands (ev):

   -44.1481 -44.1481 -22.2516 -22.2516 -22.2291 -22.2291 -22.0808 -22.0808
    -7.1323  -7.1323  -6.6934  -6.6934  -5.6265  -5.6265  -5.1520  -5.1520
    -4.4730  -4.4730  -0.0784  -0.0784   0.4383   0.4383   1.0964   1.0964
     1.5502   1.5502   1.9380   1.9380   2.4445   2.4445   2.8540   2.8540
     2.9340   2.9340   3.3129   3.3129   3.5907   3.5907   3.9833   3.9833
     4.0494   4.0494   6.4257   6.4257   6.5363   6.5363   7.0433   7.0433
     7.6015   7.6015

          k = 1.0162 0.1290 0.0000 ( 36514 PWs)   bands (ev):

   -44.1477 -44.1477 -22.2496 -22.2496 -22.2385 -22.2385 -22.0797 -22.0797
    -6.7678  -6.7465  -6.3005  -6.2889  -6.2879  -6.2837  -5.1743  -5.1738
    -4.4368  -4.4067  -0.1605  -0.1307   0.1472   0.1736   1.0032   1.0284
     1.4738   1.6476   2.2033   2.3751   2.4003   2.4139   2.7640   2.8470
     2.8770   2.8803   3.1921   3.1974   3.2905   3.3352   3.4696   3.5985
     3.9618   4.2527   6.6801   6.7649   6.8028   6.8558   7.1517   7.2219
     7.2250   7.2735

          k = 1.0162 0.1290 0.1485 ( 36524 PWs)   bands (ev):

   -44.1477 -44.1477 -22.2496 -22.2496 -22.2385 -22.2385 -22.0797 -22.0797
    -6.7626  -6.7473  -6.3372  -6.3301  -6.2510  -6.2467  -5.1728  -5.1725
    -4.4345  -4.4132  -0.2489  -0.2385   0.3353   0.3417   1.0050   1.0187
     1.4653   1.5826   2.0866   2.1990   2.3390   2.3923   2.6209   2.6855
     2.9183   3.0353   3.1111   3.2061   3.5062   3.5215   3.6206   3.6866
     4.0847   4.2744   6.2939   6.3299   6.5871   6.6705   7.2370   7.2415
     7.4655   7.5166

          k = 1.0162 0.1290-0.2971 ( 36516 PWs)   bands (ev):

   -44.1477 -44.1477 -22.2496 -22.2496 -22.2385 -22.2385 -22.0797 -22.0797
    -6.7527  -6.7527  -6.3521  -6.3521  -6.2324  -6.2324  -5.1712  -5.1712
    -4.4260  -4.4260  -0.3041  -0.3041   0.5066   0.5066   0.9807   0.9807
     1.5031   1.5031   1.9568   1.9568   2.3374   2.3374   2.7344   2.7344
     2.8401   2.8401   3.1950   3.1950   3.6285   3.6285   3.7739   3.7739
     4.3138   4.3138   5.9542   5.9542   6.5310   6.5310   7.2512   7.2512
     7.5957   7.5957

          k =-0.7622-0.3224 0.0000 ( 36511 PWs)   bands (ev):

   -44.1481 -44.1481 -22.2516 -22.2516 -22.2291 -22.2291 -22.0808 -22.0807
    -7.2000  -7.0162  -6.7755  -6.6560  -5.7293  -5.5425  -5.1546  -5.1305
    -4.5037  -4.4471  -0.2583   0.0279   0.1669   0.8847   0.9213   1.2865
     1.5030   1.6660   2.0926   2.1900   2.2101   2.2405   2.4693   2.8507
     3.0074   3.2060   3.3443   3.4457   3.4957   3.6223   3.6908   3.7036
     4.0007   4.5511   6.2001   6.5030   6.5644   6.8689   7.0134   7.0968
     7.3746   7.5739

          k =-0.7622-0.3224 0.1485 ( 36492 PWs)   bands (ev):

   -44.1481 -44.1481 -22.2516 -22.2516 -22.2291 -22.2291 -22.0808 -22.0807
    -7.1796  -7.0539  -6.7487  -6.6684  -5.6977  -5.5643  -5.1559  -5.1408
    -4.4938  -4.4543  -0.2221   0.0751   0.1517   0.7893   0.9138   1.2322
     1.5248   1.6105   2.0183   2.1127   2.1867   2.5686   2.6799   2.9229
     2.9581   3.0479   3.2399   3.3212   3.4752   3.5814   3.7743   3.8791
     4.0366   4.4718   6.0020   6.4890   6.7242   6.9027   7.0398   7.1153
     7.2185   7.6072

          k =-0.7622-0.3224-0.2971 ( 36508 PWs)   bands (ev):

   -44.1481 -44.1481 -22.2516 -22.2516 -22.2291 -22.2291 -22.0808 -22.0808
    -7.1240  -7.1240  -6.7028  -6.7028  -5.6263  -5.6263  -5.1539  -5.1539
    -4.4727  -4.4727  -0.0976  -0.0976   0.4536   0.4536   1.0552   1.0552
     1.5625   1.5625   2.0574   2.0574   2.4577   2.4577   2.8439   2.8439
     2.9883   2.9883   3.1979   3.1979   3.5912   3.5912   3.9207   3.9207
     4.1256   4.1256   6.3630   6.3630   6.5378   6.5378   7.1191   7.1191
     7.5209   7.5209

          k =-0.5081-0.2579 0.0000 ( 36480 PWs)   bands (ev):

   -44.1490 -44.1490 -22.2564 -22.2564 -22.2063 -22.2063 -22.0834 -22.0833
    -7.7751  -7.5972  -6.9151  -6.7980  -5.8554  -5.2344  -4.9957  -4.6325
    -4.5628  -4.4926  -0.0299   0.4411   0.7078   0.9120   1.1705   1.4138
     1.6438   1.7533   1.7883   2.0641   2.1420   2.4447   2.5730   3.3855
     3.4575   3.5383   3.5608   3.6981   3.7251   3.7689   4.0571   4.1449
     4.2933   4.8691   5.8612   6.2032   6.2536   6.7046   6.7766   6.9765
     7.4096   7.4921

          k =-0.5081-0.2579 0.1485 ( 36485 PWs)   bands (ev):

   -44.1490 -44.1490 -22.2564 -22.2564 -22.2063 -22.2063 -22.0834 -22.0833
    -7.7535  -7.6291  -6.8922  -6.8109  -5.7955  -5.4018  -4.8623  -4.6126
    -4.6013  -4.4981   0.0288   0.4009   0.7768   0.8239   1.1477   1.2833
     1.4987   1.6467   1.9916   2.0641   2.3338   2.5312   2.8696   3.2967
     3.4446   3.5004   3.5222   3.6585   3.6892   3.7769   3.9432   4.1777
     4.2671   4.4939   6.2697   6.2893   6.4064   6.7055   6.8140   6.8657
     7.2459   7.4911

          k =-0.5081-0.2579-0.2971 ( 36478 PWs)   bands (ev):

   -44.1490 -44.1490 -22.2564 -22.2564 -22.2063 -22.2063 -22.0834 -22.0834
    -7.6961  -7.6961  -6.8468  -6.8468  -5.6298  -5.6298  -4.7132  -4.7132
    -4.5418  -4.5418   0.2009   0.2009   0.9511   0.9511   0.9762   0.9762
     1.5567   1.5567   2.0383   2.0383   2.6817   2.6817   3.1557   3.1557
     3.3694   3.3694   3.5686   3.5686   3.7094   3.7094   3.9506   3.9506
     4.3037   4.3037   6.4550   6.4550   6.6503   6.6503   6.8507   6.8507
     7.2593   7.2593

          k =-0.2541-0.1934 0.0000 ( 36410 PWs)   bands (ev):

   -44.1498 -44.1498 -22.2611 -22.2611 -22.1834 -22.1834 -22.0860 -22.0859
    -8.1473  -7.9635  -7.0649  -6.9192  -6.0243  -5.3576  -4.7736  -4.7241
    -4.6731  -3.9483   0.3097   0.8435   0.9214   1.0251   1.2798   1.4747
     1.4981   1.5697   1.7855   2.5674   2.6202   3.1836   3.3622   3.6763
     3.7308   3.7561   3.8853   3.9018   3.9188   4.2008   4.3067   4.3748
     4.3987   4.6534   6.0056   6.0277   6.2356   6.4289   6.4819   6.7681
     7.0206   7.1649

          k =-0.2541-0.1934 0.1485 ( 36427 PWs)   bands (ev):

   -44.1498 -44.1498 -22.2611 -22.2611 -22.1834 -22.1834 -22.0860 -22.0859
    -8.1248  -7.9961  -7.0362  -6.9350  -5.9610  -5.5247  -4.7521  -4.6893
    -4.5481  -4.0315   0.3775   0.7594   0.9065   1.0667   1.1615   1.2547
     1.5749   1.7233   2.0952   2.5676   2.6079   2.9413   3.4347   3.4810
     3.5333   3.7831   3.8613   3.9098   4.0279   4.1942   4.3777   4.4009
     4.6309   4.7747   5.8964   6.0292   6.1260   6.2939   6.3458   6.8169
     7.1723   7.2281

          k =-0.2541-0.1934-0.2971 ( 36422 PWs)   bands (ev):

   -44.1498 -44.1498 -22.2611 -22.2611 -22.1834 -22.1834 -22.0860 -22.0860
    -8.0652  -8.0652  -6.9794  -6.9794  -5.7800  -5.7800  -4.7202  -4.7202
    -4.2560  -4.2560   0.5596   0.5596   0.9534   0.9534   1.1600   1.1600
     1.7350   1.7350   2.4878   2.4878   2.6479   2.6479   3.2898   3.2898
     3.7094   3.7094   3.8506   3.8506   4.1538   4.1538   4.3926   4.3926
     4.9251   4.9251   5.7675   5.7675   6.1903   6.1903   6.5115   6.5115
     7.3436   7.3436

          k = 0.0000-0.1290 0.0000 ( 36417 PWs)   bands (ev):

   -44.1502 -44.1502 -22.2630 -22.2630 -22.1739 -22.1739 -22.0871 -22.0870
    -8.2754  -8.0883  -7.1298  -6.9683  -6.0786  -5.4048  -4.7932  -4.7315
    -4.6786  -3.7612   0.2239   0.8040   0.8780   1.1759   1.2767   1.5653
     1.7785   1.8829   2.2576   2.8223   2.9194   2.9755   3.2347   3.4311
     3.8420   3.9456   3.9686   4.0130   4.2867   4.3705   4.4346   4.6705
     4.7439   5.2483   5.6437   5.9121   5.9315   5.9438   6.0945   6.7204
     7.1124   7.2268

          k = 0.0000-0.1290 0.1485 ( 36419 PWs)   bands (ev):

   -44.1502 -44.1502 -22.2630 -22.2630 -22.1739 -22.1739 -22.0871 -22.0870
    -8.2524  -8.1215  -7.0980  -6.9856  -6.0160  -5.5744  -4.7826  -4.7361
    -4.4850  -3.8681   0.3033   0.8911   0.9292   0.9449   1.1430   1.7921
     1.8553   1.8656   2.0158   2.8395   2.9077   3.0184   3.3607   3.5204
     3.8152   3.9425   3.9931   4.0076   4.2860   4.3282   4.4384   4.6864
     4.7354   4.8336   5.8555   5.8871   5.9118   6.2313   6.2818   6.5815
     6.9199   7.0649

          k = 0.0000-0.1290-0.2971 ( 36464 PWs)   bands (ev):

   -44.1502 -44.1502 -22.2630 -22.2630 -22.1739 -22.1739 -22.0870 -22.0870
    -8.1918  -8.1918  -7.0348  -7.0348  -5.8344  -5.8344  -4.7591  -4.7591
    -4.1447  -4.1447   0.5379   0.5379   1.0093   1.0093   1.3540   1.3540
     1.8270   1.8270   2.5527   2.5527   2.8763   2.8763   3.6293   3.6293
     3.8691   3.8691   4.1232   4.1232   4.2101   4.2101   4.4357   4.4357
     4.7133   4.7133   5.8878   5.8878   6.2252   6.2252   6.5571   6.5571
     6.7309   6.7309

          k = 1.0162 0.0000 0.0000 ( 36499 PWs)   bands (ev):

   -44.1477 -44.1477 -22.2496 -22.2496 -22.2385 -22.2385 -22.0797 -22.0797
    -6.7678  -6.7465  -6.3004  -6.2890  -6.2879  -6.2837  -5.1743  -5.1738
    -4.4368  -4.4067  -0.1645  -0.1266   0.1451   0.1758   0.9988   1.0335
     1.4820   1.6361   2.1995   2.3878   2.3999   2.4062   2.7517   2.8601
     2.8603   2.9121   3.1638   3.2260   3.2791   3.3128   3.5117   3.5778
     3.9463   4.2681   6.6749   6.7739   6.7928   6.8657   7.2006   7.2222
     7.2266   7.2278

          k = 1.0162 0.0000 0.1485 ( 36485 PWs)   bands (ev):

   -44.1477 -44.1477 -22.2496 -22.2496 -22.2385 -22.2385 -22.0797 -22.0797
    -6.7626  -6.7473  -6.3371  -6.3301  -6.2510  -6.2467  -5.1728  -5.1725
    -4.4345  -4.4132  -0.2505  -0.2371   0.3369   0.3406   1.0034   1.0203
     1.4728   1.5749   2.0961   2.1810   2.3441   2.3905   2.6140   2.6981
     2.9164   3.0444   3.1143   3.1962   3.4932   3.5207   3.6542   3.6687
     4.0672   4.2903   6.2919   6.3377   6.5837   6.6725   7.2397   7.2408
     7.4862   7.4969

          k = 1.0162 0.0000-0.2971 ( 36514 PWs)   bands (ev):

   -44.1477 -44.1477 -22.2496 -22.2496 -22.2385 -22.2385 -22.0797 -22.0797
    -6.7527  -6.7527  -6.3521  -6.3521  -6.2324  -6.2324  -5.1712  -5.1712
    -4.4260  -4.4260  -0.3042  -0.3042   0.5069   0.5069   0.9804   0.9804
     1.5043   1.5043   1.9573   1.9573   2.3320   2.3320   2.7215   2.7215
     2.8638   2.8638   3.1864   3.1864   3.6300   3.6300   3.7734   3.7734
     4.3144   4.3144   5.9572   5.9572   6.5301   6.5301   7.2520   7.2520
     7.5965   7.5965

          k = 1.2703 0.0645 0.0000 ( 36468 PWs)   bands (ev):

   -44.1481 -44.1481 -22.2516 -22.2516 -22.2291 -22.2291 -22.0808 -22.0807
    -7.1950  -7.0154  -6.7791  -6.6585  -5.7288  -5.5445  -5.1557  -5.1302
    -4.5082  -4.4419  -0.2664   0.0306   0.1576   0.8651   0.9307   1.2764
     1.5040   1.7176   2.1726   2.1998   2.2206   2.2284   2.4154   2.8808
     3.0090   3.1946   3.3739   3.4316   3.5076   3.5774   3.6220   3.6779
     4.0985   4.5141   6.2025   6.5104   6.5818   6.8103   7.0432   7.1634
     7.3422   7.5536

          k = 1.2703 0.0645 0.1485 ( 36490 PWs)   bands (ev):

   -44.1481 -44.1481 -22.2516 -22.2516 -22.2291 -22.2291 -22.0808 -22.0807
    -7.1749  -7.0520  -6.7528  -6.6715  -5.6972  -5.5655  -5.1569  -5.1410
    -4.4970  -4.4506  -0.2301   0.0681   0.1538   0.7990   0.8951   1.2209
     1.5345   1.6266   2.0298   2.1653   2.2279   2.5745   2.6316   2.9455
     2.9561   3.0799   3.2235   3.2877   3.4854   3.5341   3.7728   3.8394
     4.0858   4.4760   5.9814   6.5202   6.6944   6.8990   7.0208   7.1780
     7.2206   7.5539

          k = 1.2703 0.0645-0.2971 ( 36480 PWs)   bands (ev):

   -44.1481 -44.1481 -22.2516 -22.2516 -22.2291 -22.2291 -22.0808 -22.0808
    -7.1204  -7.1204  -6.7068  -6.7068  -5.6262  -5.6262  -5.1547  -5.1547
    -4.4725  -4.4725  -0.1053  -0.1053   0.4594   0.4594   1.0416   1.0416
     1.5687   1.5687   2.0957   2.0957   2.4785   2.4785   2.8419   2.8419
     3.0070   3.0070   3.1527   3.1527   3.5843   3.5843   3.8872   3.8872
     4.1643   4.1643   6.3413   6.3413   6.5366   6.5366   7.1565   7.1565
     7.4693   7.4693

          k =-0.5081-0.3869 0.0000 ( 36463 PWs)   bands (ev):

   -44.1490 -44.1490 -22.2564 -22.2564 -22.2063 -22.2063 -22.0834 -22.0833
    -7.7706  -7.5963  -6.9156  -6.7991  -5.8627  -5.2360  -5.0014  -4.6388
    -4.5536  -4.4938  -0.0401   0.4566   0.7045   0.8920   1.1796   1.5397
     1.6544   1.7777   1.8217   2.0427   2.1645   2.4441   2.5599   3.2881
     3.4894   3.5391   3.5686   3.5795   3.7266   3.7524   4.0132   4.1424
     4.2806   4.8875   5.8507   6.1252   6.3193   6.8075   6.8900   6.9116
     7.3682   7.4562

          k =-0.5081-0.3869 0.1485 ( 36477 PWs)   bands (ev):

   -44.1490 -44.1490 -22.2564 -22.2564 -22.2063 -22.2063 -22.0834 -22.0833
    -7.7493  -7.6274  -6.8935  -6.8125  -5.8015  -5.4037  -4.8699  -4.6106
    -4.6046  -4.4935   0.0214   0.4148   0.7734   0.8067   1.1465   1.3047
     1.6212   1.7202   1.9592   2.0356   2.3834   2.5273   2.8628   3.2200
     3.4258   3.4975   3.5174   3.5800   3.6915   3.7486   3.9817   4.1249
     4.2256   4.5198   6.2183   6.3265   6.3853   6.7684   6.8098   6.9550
     7.1886   7.4728

          k =-0.5081-0.3869-0.2971 ( 36492 PWs)   bands (ev):

   -44.1490 -44.1490 -22.2564 -22.2564 -22.2063 -22.2063 -22.0834 -22.0834
    -7.6929  -7.6929  -6.8489  -6.8489  -5.6334  -5.6334  -4.7205  -4.7205
    -4.5368  -4.5368   0.2010   0.2010   0.9537   0.9537   0.9686   0.9686
     1.6671   1.6671   2.0044   2.0044   2.7294   2.7294   3.0825   3.0825
     3.3624   3.3624   3.5414   3.5414   3.6822   3.6822   3.9696   3.9696
     4.2724   4.2724   6.4240   6.4240   6.6993   6.6993   6.8291   6.8291
     7.2819   7.2820

          k =-0.2541-0.3224 0.0000 ( 36485 PWs)   bands (ev):

   -44.1499 -44.1498 -22.2611 -22.2611 -22.1834 -22.1834 -22.0860 -22.0859
    -8.1429  -7.9626  -7.0605  -6.9191  -6.0405  -5.3633  -4.7977  -4.7156
    -4.6619  -3.9493   0.3348   0.8349   0.9294   1.1345   1.3206   1.4878
     1.5345   1.6466   1.8169   2.5021   2.5769   3.2008   3.4501   3.5707
     3.6214   3.6696   3.7511   3.9040   3.9511   4.1342   4.1824   4.2939
     4.3572   4.7045   6.0738   6.0983   6.2987   6.4455   6.5124   6.8420
     6.9422   7.0840

          k =-0.2541-0.3224 0.1485 ( 36445 PWs)   bands (ev):

   -44.1498 -44.1498 -22.2611 -22.2611 -22.1834 -22.1834 -22.0860 -22.0859
    -8.1207  -7.9944  -7.0333  -6.9349  -5.9751  -5.5311  -4.7690  -4.6823
    -4.5438  -4.0317   0.4028   0.7606   0.9129   1.1513   1.2255   1.3129
     1.5887   1.7476   2.1499   2.5051   2.5677   2.9586   3.4271   3.4916
     3.5825   3.6063   3.6630   3.9082   3.9650   4.1331   4.2985   4.3511
     4.6168   4.8106   5.9003   6.0384   6.1492   6.3554   6.4498   6.7883
     7.1488   7.2132

          k =-0.2541-0.3224-0.2971 ( 36442 PWs)   bands (ev):

   -44.1498 -44.1498 -22.2611 -22.2611 -22.1834 -22.1834 -22.0860 -22.0860
    -8.0621  -8.0621  -6.9786  -6.9786  -5.7898  -5.7898  -4.7248  -4.7248
    -4.2542  -4.2542   0.5801   0.5801   0.9654   0.9654   1.2507   1.2507
     1.7526   1.7526   2.4784   2.4784   2.6461   2.6461   3.2903   3.2903
     3.5824   3.5824   3.8119   3.8119   4.0936   4.0936   4.3311   4.3311
     4.9464   4.9464   5.7432   5.7432   6.2161   6.2161   6.5668   6.5668
     7.3346   7.3346

          k = 0.0000-0.2579 0.0000 ( 36445 PWs)   bands (ev):

   -44.1502 -44.1502 -22.2630 -22.2630 -22.1739 -22.1739 -22.0871 -22.0870
    -8.2714  -8.0875  -7.1239  -6.9680  -6.0963  -5.4120  -4.8129  -4.7214
    -4.6735  -3.7620   0.2539   0.8120   0.9860   1.2291   1.3031   1.6355
     1.7779   1.8819   2.2513   2.8398   2.9280   2.9854   3.2263   3.5384
     3.6048   3.6852   3.9177   3.9655   4.1596   4.3071   4.3712   4.6386
     4.7408   5.2169   5.6887   5.9967   6.0102   6.0171   6.1140   6.7558
     7.0927   7.1124

          k = 0.0000-0.2579 0.1485 ( 36452 PWs)   bands (ev):

   -44.1502 -44.1502 -22.2630 -22.2630 -22.1739 -22.1739 -22.0871 -22.0870
    -8.2488  -8.1199  -7.0936  -6.9851  -6.0317  -5.5823  -4.7983  -4.7278
    -4.4831  -3.8684   0.3343   0.9376   0.9509   1.0302   1.2010   1.7915
     1.8647   1.8663   2.0592   2.8557   2.9176   3.0294   3.3300   3.5501
     3.6790   3.7029   3.9113   3.9665   4.2040   4.2748   4.3189   4.6680
     4.7318   4.8288   5.9063   5.9469   5.9872   6.2470   6.2995   6.6051
     6.9229   6.9698

          k = 0.0000-0.2579-0.2971 ( 36454 PWs)   bands (ev):

   -44.1502 -44.1502 -22.2630 -22.2630 -22.1739 -22.1739 -22.0870 -22.0870
    -8.1890  -8.1890  -7.0330  -7.0330  -5.8457  -5.8457  -4.7629  -4.7629
    -4.1438  -4.1438   0.5731   0.5731   1.0890   1.0890   1.3673   1.3673
     1.8263   1.8263   2.5845   2.5845   2.8893   2.8893   3.5299   3.5299
     3.7815   3.7815   4.1014   4.1014   4.1026   4.1026   4.3759   4.3759
     4.7063   4.7063   5.9416   5.9416   6.2601   6.2601   6.5660   6.5660
     6.6899   6.6899

          k = 1.5243 0.0000 0.0000 ( 36439 PWs)   bands (ev):

   -44.1490 -44.1490 -22.2564 -22.2564 -22.2063 -22.2063 -22.0834 -22.0833
    -7.7687  -7.5959  -6.9160  -6.7994  -5.8658  -5.2366  -5.0038  -4.6408
    -4.5503  -4.4943  -0.0442   0.4629   0.7026   0.8851   1.1834   1.6085
     1.6737   1.7538   1.8361   2.0317   2.1986   2.4215   2.5535   3.2543
     3.5038   3.5072   3.5667   3.5721   3.7055   3.7742   3.9536   4.1703
     4.2748   4.8941   5.8469   6.0902   6.3509   6.8541   6.8544   6.9766
     7.3335   7.5034

          k = 1.5243 0.0000 0.1485 ( 36476 PWs)   bands (ev):

   -44.1490 -44.1490 -22.2564 -22.2564 -22.2063 -22.2063 -22.0834 -22.0833
    -7.7475  -7.6266  -6.8942  -6.8131  -5.8041  -5.4045  -4.8730  -4.6091
    -4.6065  -4.4916   0.0183   0.4204   0.7754   0.7961   1.1471   1.3127
     1.7181   1.7219   1.9431   2.0107   2.4578   2.4699   2.8575   3.1946
     3.3907   3.4993   3.5240   3.5658   3.6982   3.7332   3.9676   4.1375
     4.1989   4.5302   6.1924   6.3435   6.3805   6.7423   6.8434   7.0285
     7.1454   7.4957

          k = 1.5243 0.0000-0.2971 ( 36508 PWs)   bands (ev):

   -44.1490 -44.1490 -22.2564 -22.2564 -22.2063 -22.2063 -22.0834 -22.0834
    -7.6916  -7.6916  -6.8497  -6.8497  -5.6349  -5.6349  -4.7234  -4.7234
    -4.5348  -4.5348   0.2010   0.2010   0.9558   0.9558   0.9646   0.9646
     1.7272   1.7272   1.9774   1.9774   2.7597   2.7597   3.0331   3.0331
     3.3633   3.3633   3.5309   3.5309   3.6753   3.6753   3.9727   3.9727
     4.2637   4.2637   6.4114   6.4114   6.7023   6.7023   6.8329   6.8329
     7.3015   7.3016

          k =-0.2541-0.4514 0.0000 ( 36444 PWs)   bands (ev):

   -44.1498 -44.1498 -22.2611 -22.2611 -22.1834 -22.1834 -22.0860 -22.0859
    -8.1398  -7.9620  -7.0579  -6.9184  -6.0522  -5.3674  -4.8119  -4.7090
    -4.6574  -3.9500   0.3474   0.8309   0.9333   1.2522   1.3221   1.5014
     1.5604   1.7258   1.8516   2.4325   2.5062   3.2496   3.4203   3.4667
     3.5130   3.6578   3.8190   3.9068   3.9588   4.0266   4.0995   4.2360
     4.3448   4.7372   6.0986   6.1771   6.3076   6.4816   6.5346   6.8567
     6.8885   7.0458

          k =-0.2541-0.4514 0.1485 ( 36461 PWs)   bands (ev):

   -44.1498 -44.1498 -22.2611 -22.2611 -22.1834 -22.1834 -22.0860 -22.0859
    -8.1178  -7.9932  -7.0316  -6.9345  -5.9852  -5.5356  -4.7794  -4.6785
    -4.5411  -4.0318   0.4159   0.7618   0.9155   1.1919   1.3074   1.3647
     1.6048   1.7766   2.2064   2.4382   2.4925   2.9906   3.3619   3.4118
     3.5218   3.5552   3.7503   3.9016   3.9351   4.0048   4.2641   4.3281
     4.6105   4.8335   5.9025   6.0382   6.1789   6.3762   6.5169   6.7470
     7.1537   7.2013

          k =-0.2541-0.4514-0.2971 ( 36490 PWs)   bands (ev):

   -44.1499 -44.1499 -22.2611 -22.2611 -22.1834 -22.1834 -22.0860 -22.0860
    -8.0599  -8.0599  -6.9781  -6.9781  -5.7966  -5.7966  -4.7281  -4.7281
    -4.2530  -4.2530   0.5909   0.5909   0.9711   0.9711   1.3351   1.3351
     1.7724   1.7724   2.4486   2.4486   2.6473   2.6473   3.2702   3.2702
     3.4611   3.4611   3.8775   3.8775   4.0123   4.0123   4.2992   4.2992
     4.9605   4.9605   5.7289   5.7289   6.2153   6.2153   6.6043   6.6043
     7.3326   7.3326

          k = 0.0000-0.3869 0.0000 ( 36477 PWs)   bands (ev):

   -44.1502 -44.1502 -22.2630 -22.2630 -22.1739 -22.1739 -22.0871 -22.0870
    -8.2674  -8.0867  -7.1185  -6.9668  -6.1145  -5.4190  -4.8301  -4.7079
    -4.6743  -3.7629   0.2750   0.8214   1.1310   1.2923   1.3275   1.7109
     1.7773   1.8809   2.2464   2.8587   2.9362   3.0063   3.1717   3.2922
     3.4751   3.6953   3.8893   3.9789   4.0231   4.1355   4.3718   4.6069
     4.7379   5.1961   5.7338   6.0522   6.0734   6.0919   6.1339   6.7610
     6.9747   7.1123

          k = 0.0000-0.3869 0.1485 ( 36452 PWs)   bands (ev):

   -44.1502 -44.1502 -22.2630 -22.2630 -22.1739 -22.1739 -22.0871 -22.0870
    -8.2451  -8.1184  -7.0896  -6.9839  -6.0476  -5.5900  -4.8113  -4.7220
    -4.4815  -3.8686   0.3558   0.9605   0.9710   1.1777   1.2733   1.7909
     1.8638   1.8783   2.1073   2.8730   2.9274   3.0238   3.2228   3.3377
     3.4929   3.7848   3.9395   3.9395   4.0790   4.1587   4.2623   4.6509
     4.7284   4.8277   5.9602   5.9965   6.0302   6.2630   6.3111   6.5999
     6.8849   6.9259

          k = 0.0000-0.3869-0.2971 ( 36454 PWs)   bands (ev):

   -44.1502 -44.1502 -22.2630 -22.2630 -22.1739 -22.1739 -22.0870 -22.0870
    -8.1862  -8.1862  -7.0311  -7.0311  -5.8570  -5.8570  -4.7667  -4.7667
    -4.1429  -4.1429   0.5974   0.5974   1.1977   1.1977   1.3854   1.3854
     1.8256   1.8256   2.6180   2.6180   2.9029   2.9029   3.2713   3.2713
     3.8347   3.8347   4.0206   4.0206   4.0789   4.0789   4.3199   4.3199
     4.6998   4.6998   5.9692   5.9692   6.2955   6.2955   6.5752   6.5752
     6.6378   6.6378

          k =-2.0325 0.0000 0.0000 ( 36452 PWs)   bands (ev):

   -44.1502 -44.1502 -22.2630 -22.2630 -22.1739 -22.1739 -22.0871 -22.0870
    -8.2658  -8.0863  -7.1165  -6.9660  -6.1221  -5.4219  -4.8367  -4.6997
    -4.6778  -3.7632   0.2811   0.8257   1.2578   1.2617   1.3370   1.7555
     1.7771   1.8805   2.2448   2.8670   2.9394   3.0188   3.0906   3.1751
     3.4248   3.8614   3.8775   3.8926   3.9850   4.0353   4.3720   4.5938
     4.7368   5.1890   5.7524   6.0701   6.0909   6.1349   6.1421   6.7382
     6.9417   7.1122

          k =-2.0325 0.0000 0.1485 ( 36456 PWs)   bands (ev):

   -44.1502 -44.1502 -22.2630 -22.2630 -22.1739 -22.1739 -22.0871 -22.0870
    -8.2435  -8.1178  -7.0881  -6.9832  -6.0543  -5.5931  -4.8163  -4.7200
    -4.4809  -3.8687   0.3619   0.9713   0.9783   1.2691   1.2918   1.7906
     1.8635   1.8838   2.1324   2.8806   2.9313   2.9966   3.1100   3.2793
     3.4520   3.8969   3.9282   3.9537   4.0112   4.0477   4.2568   4.6441
     4.7270   4.8274   5.9821   6.0217   6.0396   6.2697   6.3147   6.5825
     6.8581   6.9271

          k =-2.0325 0.0000-0.2971 ( 36460 PWs)   bands (ev):

   -44.1502 -44.1502 -22.2630 -22.2630 -22.1739 -22.1739 -22.0870 -22.0870
    -8.1851  -8.1851  -7.0303  -7.0303  -5.8616  -5.8616  -4.7683  -4.7683
    -4.1425  -4.1425   0.6047   0.6047   1.2516   1.2516   1.3969   1.3969
     1.8253   1.8253   2.6324   2.6324   2.9086   2.9086   3.1497   3.1497
     3.8885   3.8885   3.9642   3.9642   4.0693   4.0693   4.2994   4.2994
     4.6972   4.6972   5.9759   5.9759   6.3101   6.3101   6.5790   6.5790
     6.6138   6.6138

     the Fermi energy is     5.4550 ev

!    total energy              =   -4240.93327624 Ry

     total all-electron energy =   -150287.626971 Ry
     estimated scf accuracy    <          7.2E-12 Ry
     smearing contrib. (-TS)   =       0.00000000 Ry
     internal energy E=F+TS    =   -4240.93327624 Ry

     The total energy is F=E-TS. E is the sum of the following terms:
     one-electron contribution =    -168.63559361 Ry
     hartree contribution      =     117.76844464 Ry
     xc contribution           =    -201.61674332 Ry
     ewald contribution        =    -220.90860018 Ry
     one-center paw contrib.   =   -3767.54078377 Ry

     convergence has been achieved in  17 iterations

     Forces acting on atoms (cartesian axes, Ry/au):

     atom    1 type  1   force =     0.00000000    0.01819240    0.00000000
     atom    2 type  1   force =     0.00000000   -0.01819240    0.00000000
     atom    3 type  2   force =     0.00000000   -0.00019275    0.00000000
     atom    4 type  2   force =    -0.00000000    0.00019275    0.00000000
     atom    5 type  2   force =     0.00000000   -0.00421799   -0.00260619
     atom    6 type  2   force =     0.00000000    0.00421799    0.00260619
     atom    7 type  2   force =     0.00000000   -0.00421799    0.00260619
     atom    8 type  2   force =     0.00000000    0.00421799   -0.00260619
     atom    9 type  2   force =     0.00000000   -0.03314216   -0.03826107
     atom   10 type  2   force =     0.00000000    0.03314216    0.03826107
     atom   11 type  2   force =     0.00000000   -0.03314216    0.03826107
     atom   12 type  2   force =    -0.00000000    0.03314216   -0.03826107

     Total force =     0.104927     Total SCF correction =     0.000004


     Computing stress (Cartesian axis) and pressure

          total   stress  (Ry/bohr**3)                   (kbar)     P=        9.06
   0.00007029   0.00000000   0.00000000           10.34        0.00        0.00
  -0.00000000   0.00003382   0.00000000           -0.00        4.97        0.00
   0.00000000   0.00000000   0.00008063            0.00        0.00       11.86

 
     init_run     :     18.72s CPU     19.16s WALL (       1 calls)
     electrons    :    890.17s CPU    900.32s WALL (       1 calls)
     forces       :      6.57s CPU      6.82s WALL (       1 calls)
     stress       :     39.98s CPU     40.56s WALL (       1 calls)

     Called by init_run:
     wfcinit      :     14.34s CPU     14.49s WALL (       1 calls)
     potinit      :      1.29s CPU      1.33s WALL (       1 calls)
     hinit0       :      1.79s CPU      1.84s WALL (       1 calls)

     Called by electrons:
     c_bands      :    740.15s CPU    743.28s WALL (      18 calls)
     sum_band     :    125.29s CPU    129.04s WALL (      18 calls)
     v_of_rho     :      5.40s CPU      5.64s WALL (      18 calls)
     newd         :     13.61s CPU     16.75s WALL (      18 calls)
     PAW_pot      :      5.72s CPU      5.72s WALL (      18 calls)
     mix_rho      :      0.83s CPU      0.85s WALL (      18 calls)

     Called by c_bands:
     init_us_2    :     10.74s CPU     10.79s WALL (    2457 calls)
     cegterg      :    667.07s CPU    669.71s WALL (    1134 calls)

     Called by *egterg:
     cdiaghg      :     26.06s CPU     26.13s WALL (    7799 calls)
     h_psi        :    511.02s CPU    513.50s WALL (    7925 calls)
     s_psi        :     41.63s CPU     41.68s WALL (    7925 calls)
     g_psi        :      1.82s CPU      1.84s WALL (    6728 calls)

     Called by h_psi:
     h_psi:calbec :     36.67s CPU     36.73s WALL (    7925 calls)
     vloc_psi     :    430.03s CPU    432.32s WALL (    7925 calls)
     add_vuspsi   :     41.47s CPU     41.53s WALL (    7925 calls)

     General routines
     calbec       :     48.73s CPU     48.82s WALL (    9374 calls)
     fft          :      3.42s CPU      3.52s WALL (     258 calls)
     ffts         :      0.08s CPU      0.08s WALL (      36 calls)
     fftw         :    401.58s CPU    403.67s WALL (  404874 calls)
     interpolate  :      0.30s CPU      0.30s WALL (      18 calls)
 
     Parallel routines
 
     PWSCF        :  15m55.70s CPU  16m 7.64s WALL

 
   This run was terminated on:  15:31:59  19Nov2021            

=------------------------------------------------------------------------------=
   JOB DONE.
=------------------------------------------------------------------------------=
