
     Program PWSCF v.6.8 starts on 19Nov2021 at 15:15:57 

     This program is part of the open-source Quantum ESPRESSO suite
     for quantum simulation of materials; please cite
         "P. Giannozzi et al., J. Phys.:Condens. Matter 21 395502 (2009);
         "P. Giannozzi et al., J. Phys.:Condens. Matter 29 465901 (2017);
         "P. Giannozzi et al., J. Chem. Phys. 152 154105 (2020);
          URL http://www.quantum-espresso.org", 
     in publications or presentations arising from this work. More details at
     http://www.quantum-espresso.org/quote

     Parallel version (MPI), running on    10 processors

     MPI processes distributed on     1 nodes
     R & G space division:  proc/nbgrp/npool/nimage =      10
     69857 MiB available memory on the printing compute node when the environment starts
 
     Waiting for input...
     Reading input from standard input

     Current dimensions of program PWSCF are:
     Max number of different atomic species (ntypx) = 10
     Max number of k-points (npk) =  40000
     Max angular momentum in pseudopotentials (lmaxx) =  4
     file Zr.pbe-spn-kjpaw_psl.1.0.0.UPF: wavefunction(s)  4S 4P renormalized
     file Te.pbe-n-kjpaw_psl.1.0.0.UPF: wavefunction(s)  5S 5P renormalized
     Message from routine setup:
     using ibrav=0 with symmetry is DISCOURAGED, use correct ibrav instead

     Subspace diagonalization in iterative solution of the eigenvalue problem:
     a serial algorithm will be used

 
     Parallelization info
     --------------------
     sticks:   dense  smooth     PW     G-vecs:    dense   smooth      PW
     Min         734     293     87               115340    29174    4753
     Max         735     295     88               115345    29176    4760
     Sum        7345    2937    873              1153415   291749   47557
 
     Using Slab Decomposition
 


     bravais-lattice index     =            0
     lattice parameter (alat)  =      15.5510  a.u.
     unit-cell volume          =    3018.5011 (a.u.)^3
     number of atoms/cell      =           12
     number of atomic types    =            2
     number of electrons       =        84.00
     number of Kohn-Sham states=           50
     kinetic-energy cutoff     =      80.0000  Ry
     charge density cutoff     =     800.0000  Ry
     scf convergence threshold =      1.0E-10
     mixing beta               =       0.7000
     number of iterations used =            8  plain     mixing
     Exchange-correlation= SLA  PW   PBX  PBC
                           (   1   4   3   4   0   0   0)

     celldm(1)=  15.551040  celldm(2)=   0.000000  celldm(3)=   0.000000
     celldm(4)=   0.000000  celldm(5)=   0.000000  celldm(6)=   0.000000

     crystal axes: (cart. coord. in units of alat)
               a(1) = (   0.246007  -0.969268   0.000000 )  
               a(2) = (   0.246007   0.969268   0.000000 )  
               a(3) = (   0.000000   0.000000   1.683031 )  

     reciprocal axes: (cart. coord. in units 2 pi/alat)
               b(1) = (  2.032465 -0.515853  0.000000 )  
               b(2) = (  2.032465  0.515853  0.000000 )  
               b(3) = (  0.000000  0.000000  0.594166 )  


     PseudoPot. # 1 for Zr read from file:
     pseudo/Zr.pbe-spn-kjpaw_psl.1.0.0.UPF
     MD5 check sum: 02112c41713a0468aff2bb39ef194e36
     Pseudo is Projector augmented-wave + core cor, Zval = 12.0
     Generated using &quot;atomic&quot; code by A. Dal Corso  v.6.2.2
     Shape of augmentation charge: PSQ
     Using radial grid of 1225 points,  6 beta functions with: 
                l(1) =   0
                l(2) =   0
                l(3) =   1
                l(4) =   1
                l(5) =   2
                l(6) =   2
     Q(r) pseudized with 0 coefficients 


     PseudoPot. # 2 for Te read from file:
     pseudo/Te.pbe-n-kjpaw_psl.1.0.0.UPF
     MD5 check sum: 66247bff2bd9dbf220fbb0bf5ab56e9d
     Pseudo is Projector augmented-wave + core cor, Zval =  6.0
     Generated using &quot;atomic&quot; code by A. Dal Corso  v.6.3
     Shape of augmentation charge: PSQ
     Using radial grid of 1245 points,  6 beta functions with: 
                l(1) =   0
                l(2) =   0
                l(3) =   1
                l(4) =   1
                l(5) =   2
                l(6) =   2
     Q(r) pseudized with 0 coefficients 


     atomic species   valence    mass     pseudopotential
        Zr            12.00    91.22000     Zr( 1.00)
        Te             6.00   127.60000     Te( 1.00)

      8 Sym. Ops., with inversion, found ( 4 have fractional translation)



   Cartesian axes

     site n.     atom                  positions (alat units)
         1           Zr  tau(   1) = (   0.0000000   0.5994781   0.4207578  )
         2           Zr  tau(   2) = (   0.2460067   0.3697900   1.2622733  )
         3           Te  tau(   3) = (   0.2460067   0.3341252   0.4207578  )
         4           Te  tau(   4) = (   0.0000000   0.6351429   1.2622733  )
         5           Te  tau(   5) = (   0.2460067   0.8126158   0.2539679  )
         6           Te  tau(   6) = (   0.0000000   0.1566523   1.4290632  )
         7           Te  tau(   7) = (   0.2460067   0.8126158   0.5875477  )
         8           Te  tau(   8) = (   0.0000000   0.1566523   1.0954834  )
         9           Te  tau(   9) = (   0.0000000   0.4256295   0.7411268  )
        10           Te  tau(  10) = (   0.2460067   0.5436387   0.9419042  )
        11           Te  tau(  11) = (   0.0000000   0.4256295   0.1003887  )
        12           Te  tau(  12) = (   0.2460067   0.5436387   1.5826424  )

     number of k points=    63  Methfessel-Paxton smearing, width (Ry)=  0.0030
                       cart. coord. in units 2pi/alat
        k(    1) = (   0.0000000   0.0000000   0.0000000), wk =   0.0078125
        k(    2) = (   0.0000000   0.0000000   0.1485415), wk =   0.0156250
        k(    3) = (   0.0000000   0.0000000  -0.2970830), wk =   0.0078125
        k(    4) = (   0.2540581   0.0644816   0.0000000), wk =   0.0312500
        k(    5) = (   0.2540581   0.0644816   0.1485415), wk =   0.0625000
        k(    6) = (   0.2540581   0.0644816  -0.2970830), wk =   0.0312500
        k(    7) = (   0.5081162   0.1289633   0.0000000), wk =   0.0312500
        k(    8) = (   0.5081162   0.1289633   0.1485415), wk =   0.0625000
        k(    9) = (   0.5081162   0.1289633  -0.2970830), wk =   0.0312500
        k(   10) = (   0.7621743   0.1934449   0.0000000), wk =   0.0312500
        k(   11) = (   0.7621743   0.1934449   0.1485415), wk =   0.0625000
        k(   12) = (   0.7621743   0.1934449  -0.2970830), wk =   0.0312500
        k(   13) = (  -1.0162324  -0.2579266   0.0000000), wk =   0.0156250
        k(   14) = (  -1.0162324  -0.2579266   0.1485415), wk =   0.0312500
        k(   15) = (  -1.0162324  -0.2579266  -0.2970830), wk =   0.0156250
        k(   16) = (   0.5081162   0.0000000   0.0000000), wk =   0.0156250
        k(   17) = (   0.5081162   0.0000000   0.1485415), wk =   0.0312500
        k(   18) = (   0.5081162   0.0000000  -0.2970830), wk =   0.0156250
        k(   19) = (   0.7621743   0.0644816   0.0000000), wk =   0.0312500
        k(   20) = (   0.7621743   0.0644816   0.1485415), wk =   0.0625000
        k(   21) = (   0.7621743   0.0644816  -0.2970830), wk =   0.0312500
        k(   22) = (   1.0162324   0.1289633   0.0000000), wk =   0.0312500
        k(   23) = (   1.0162324   0.1289633   0.1485415), wk =   0.0625000
        k(   24) = (   1.0162324   0.1289633  -0.2970830), wk =   0.0312500
        k(   25) = (  -0.7621743  -0.3224082   0.0000000), wk =   0.0312500
        k(   26) = (  -0.7621743  -0.3224082   0.1485415), wk =   0.0625000
        k(   27) = (  -0.7621743  -0.3224082  -0.2970830), wk =   0.0312500
        k(   28) = (  -0.5081162  -0.2579266   0.0000000), wk =   0.0312500
        k(   29) = (  -0.5081162  -0.2579266   0.1485415), wk =   0.0625000
        k(   30) = (  -0.5081162  -0.2579266  -0.2970830), wk =   0.0312500
        k(   31) = (  -0.2540581  -0.1934449   0.0000000), wk =   0.0312500
        k(   32) = (  -0.2540581  -0.1934449   0.1485415), wk =   0.0625000
        k(   33) = (  -0.2540581  -0.1934449  -0.2970830), wk =   0.0312500
        k(   34) = (   0.0000000  -0.1289633   0.0000000), wk =   0.0156250
        k(   35) = (   0.0000000  -0.1289633   0.1485415), wk =   0.0312500
        k(   36) = (   0.0000000  -0.1289633  -0.2970830), wk =   0.0156250
        k(   37) = (   1.0162324   0.0000000   0.0000000), wk =   0.0156250
        k(   38) = (   1.0162324   0.0000000   0.1485415), wk =   0.0312500
        k(   39) = (   1.0162324   0.0000000  -0.2970830), wk =   0.0156250
        k(   40) = (   1.2702905   0.0644816   0.0000000), wk =   0.0312500
        k(   41) = (   1.2702905   0.0644816   0.1485415), wk =   0.0625000
        k(   42) = (   1.2702905   0.0644816  -0.2970830), wk =   0.0312500
        k(   43) = (  -0.5081162  -0.3868899   0.0000000), wk =   0.0312500
        k(   44) = (  -0.5081162  -0.3868899   0.1485415), wk =   0.0625000
        k(   45) = (  -0.5081162  -0.3868899  -0.2970830), wk =   0.0312500
        k(   46) = (  -0.2540581  -0.3224082   0.0000000), wk =   0.0312500
        k(   47) = (  -0.2540581  -0.3224082   0.1485415), wk =   0.0625000
        k(   48) = (  -0.2540581  -0.3224082  -0.2970830), wk =   0.0312500
        k(   49) = (   0.0000000  -0.2579266   0.0000000), wk =   0.0156250
        k(   50) = (   0.0000000  -0.2579266   0.1485415), wk =   0.0312500
        k(   51) = (   0.0000000  -0.2579266  -0.2970830), wk =   0.0156250
        k(   52) = (   1.5243485   0.0000000   0.0000000), wk =   0.0156250
        k(   53) = (   1.5243485   0.0000000   0.1485415), wk =   0.0312500
        k(   54) = (   1.5243485   0.0000000  -0.2970830), wk =   0.0156250
        k(   55) = (  -0.2540581  -0.4513715   0.0000000), wk =   0.0312500
        k(   56) = (  -0.2540581  -0.4513715   0.1485415), wk =   0.0625000
        k(   57) = (  -0.2540581  -0.4513715  -0.2970830), wk =   0.0312500
        k(   58) = (   0.0000000  -0.3868899   0.0000000), wk =   0.0156250
        k(   59) = (   0.0000000  -0.3868899   0.1485415), wk =   0.0312500
        k(   60) = (   0.0000000  -0.3868899  -0.2970830), wk =   0.0156250
        k(   61) = (  -2.0324647   0.0000000   0.0000000), wk =   0.0078125
        k(   62) = (  -2.0324647   0.0000000   0.1485415), wk =   0.0156250
        k(   63) = (  -2.0324647   0.0000000  -0.2970830), wk =   0.0078125

     Dense  grid:  1153415 G-vectors     FFT dimensions: ( 144, 144, 240)

     Smooth grid:   291749 G-vectors     FFT dimensions: (  90,  90, 150)

     Estimated max dynamical RAM per process >     657.19 MB

     Estimated total dynamical RAM >       6.42 GB

     Initial potential from superposition of free atoms

     starting charge   83.99353, renormalised to   84.00000
     Starting wfcs are   66 randomized atomic wfcs
     Checking if some PAW data can be deallocated... 

     total cpu time spent up to now is       20.3 secs

     Self-consistent Calculation

     iteration #  1     ecut=    80.00 Ry     beta= 0.70
     Davidson diagonalization with overlap
     ethr =  1.00E-02,  avg # of iterations =  2.2

     Threshold (ethr) on eigenvalues was too large:
     Diagonalizing with lowered threshold

     Davidson diagonalization with overlap
     ethr =  4.75E-04,  avg # of iterations =  3.9

     total cpu time spent up to now is      102.9 secs

     total energy              =   -4240.69354661 Ry
     estimated scf accuracy    <       0.45552777 Ry

     iteration #  2     ecut=    80.00 Ry     beta= 0.70
     Davidson diagonalization with overlap
     ethr =  5.42E-04,  avg # of iterations =  8.1

     total cpu time spent up to now is      165.6 secs

     total energy              =   -4240.58769399 Ry
     estimated scf accuracy    <       2.06347399 Ry

     iteration #  3     ecut=    80.00 Ry     beta= 0.70
     Davidson diagonalization with overlap
     ethr =  5.42E-04,  avg # of iterations =  5.4

     total cpu time spent up to now is      216.6 secs

     total energy              =   -4240.91436828 Ry
     estimated scf accuracy    <       0.00777594 Ry

     iteration #  4     ecut=    80.00 Ry     beta= 0.70
     Davidson diagonalization with overlap
     c_bands:  2 eigenvalues not converged
     c_bands:  1 eigenvalues not converged
     c_bands:  1 eigenvalues not converged
     c_bands:  1 eigenvalues not converged
     c_bands:  4 eigenvalues not converged
     c_bands:  1 eigenvalues not converged
     c_bands:  1 eigenvalues not converged
     c_bands:  2 eigenvalues not converged
     c_bands:  1 eigenvalues not converged
     c_bands:  1 eigenvalues not converged
     c_bands:  1 eigenvalues not converged
     c_bands:  1 eigenvalues not converged
     c_bands:  1 eigenvalues not converged
     c_bands:  1 eigenvalues not converged
     c_bands:  1 eigenvalues not converged
     c_bands:  1 eigenvalues not converged
     ethr =  9.26E-06,  avg # of iterations = 17.6

     total cpu time spent up to now is      314.3 secs

     total energy              =   -4240.92352708 Ry
     estimated scf accuracy    <       0.03499851 Ry

     iteration #  5     ecut=    80.00 Ry     beta= 0.70
     Davidson diagonalization with overlap
     ethr =  9.26E-06,  avg # of iterations =  6.8

     total cpu time spent up to now is      365.5 secs

     total energy              =   -4240.92526607 Ry
     estimated scf accuracy    <       0.00584305 Ry

     iteration #  6     ecut=    80.00 Ry     beta= 0.70
     Davidson diagonalization with overlap
     ethr =  6.96E-06,  avg # of iterations =  3.5

     total cpu time spent up to now is      407.3 secs

     total energy              =   -4240.92580184 Ry
     estimated scf accuracy    <       0.00084353 Ry

     iteration #  7     ecut=    80.00 Ry     beta= 0.70
     Davidson diagonalization with overlap
     ethr =  1.00E-06,  avg # of iterations =  8.4

     total cpu time spent up to now is      469.7 secs

     total energy              =   -4240.92619221 Ry
     estimated scf accuracy    <       0.00082268 Ry

     iteration #  8     ecut=    80.00 Ry     beta= 0.70
     Davidson diagonalization with overlap
     ethr =  9.79E-07,  avg # of iterations =  2.2

     total cpu time spent up to now is      506.5 secs

     total energy              =   -4240.92622147 Ry
     estimated scf accuracy    <       0.00011166 Ry

     iteration #  9     ecut=    80.00 Ry     beta= 0.70
     Davidson diagonalization with overlap
     ethr =  1.33E-07,  avg # of iterations =  6.1

     total cpu time spent up to now is      556.8 secs

     total energy              =   -4240.92625936 Ry
     estimated scf accuracy    <       0.00001686 Ry

     iteration # 10     ecut=    80.00 Ry     beta= 0.70
     Davidson diagonalization with overlap
     ethr =  2.01E-08,  avg # of iterations =  3.3

     total cpu time spent up to now is      596.5 secs

     total energy              =   -4240.92626174 Ry
     estimated scf accuracy    <       0.00000117 Ry

     iteration # 11     ecut=    80.00 Ry     beta= 0.70
     Davidson diagonalization with overlap
     ethr =  1.40E-09,  avg # of iterations =  8.0

     total cpu time spent up to now is      656.3 secs

     total energy              =   -4240.92626283 Ry
     estimated scf accuracy    <       0.00000054 Ry

     iteration # 12     ecut=    80.00 Ry     beta= 0.70
     Davidson diagonalization with overlap
     ethr =  6.41E-10,  avg # of iterations =  2.9

     total cpu time spent up to now is      695.5 secs

     total energy              =   -4240.92626288 Ry
     estimated scf accuracy    <       0.00000006 Ry

     iteration # 13     ecut=    80.00 Ry     beta= 0.70
     Davidson diagonalization with overlap
     ethr =  6.99E-11,  avg # of iterations =  6.4

     total cpu time spent up to now is      748.4 secs

     total energy              =   -4240.92626292 Ry
     estimated scf accuracy    <       0.00000002 Ry

     iteration # 14     ecut=    80.00 Ry     beta= 0.70
     Davidson diagonalization with overlap
     ethr =  1.79E-11,  avg # of iterations =  2.2

     total cpu time spent up to now is      785.3 secs

     total energy              =   -4240.92626291 Ry
     estimated scf accuracy    <          6.3E-09 Ry

     iteration # 15     ecut=    80.00 Ry     beta= 0.70
     Davidson diagonalization with overlap
     ethr =  7.46E-12,  avg # of iterations =  5.9

     total cpu time spent up to now is      831.9 secs

     total energy              =   -4240.92626292 Ry
     estimated scf accuracy    <          3.9E-10 Ry

     iteration # 16     ecut=    80.00 Ry     beta= 0.70
     Davidson diagonalization with overlap
     ethr =  4.65E-13,  avg # of iterations =  5.7

     total cpu time spent up to now is      879.0 secs

     total energy              =   -4240.92626292 Ry
     estimated scf accuracy    <          2.5E-10 Ry

     iteration # 17     ecut=    80.00 Ry     beta= 0.70
     Davidson diagonalization with overlap
     ethr =  2.99E-13,  avg # of iterations =  2.7

     total cpu time spent up to now is      915.4 secs

     End of self-consistent calculation

          k = 0.0000 0.0000 0.0000 ( 36359 PWs)   bands (ev):

   -44.1540 -44.1539 -22.2649 -22.2649 -22.1762 -22.1762 -22.0919 -22.0917
    -8.3525  -8.1813  -7.1341  -6.9812  -6.0387  -5.3966  -4.7759  -4.7270
    -4.6430  -3.7469   0.1882   0.8149   0.8462   1.1701   1.2341   1.5298
     1.6853   1.7742   2.2577   2.8246   2.9162   2.9643   3.2087   3.4107
     3.8920   3.9779   4.1142   4.1203   4.3394   4.3875   4.5036   4.6673
     4.7565   5.2171   5.6206   5.8498   5.8519   5.9338   6.1249   6.6697
     7.1363   7.2826

          k = 0.0000 0.0000 0.1485 ( 36415 PWs)   bands (ev):

   -44.1540 -44.1539 -22.2649 -22.2649 -22.1762 -22.1762 -22.0918 -22.0917
    -8.3310  -8.2109  -7.1049  -6.9981  -5.9786  -5.5560  -4.7655  -4.7335
    -4.4561  -3.8524   0.2679   0.8437   0.9175   0.9490   1.1279   1.6971
     1.7598   1.8440   1.9914   2.8402   2.9047   2.9926   3.3660   3.4952
     3.8284   4.0231   4.0861   4.1327   4.3041   4.3877   4.4996   4.6885
     4.7468   4.8105   5.8204   5.8509   5.8522   6.2481   6.2575   6.5422
     6.9393   7.0905

          k = 0.0000 0.0000-0.2971 ( 36410 PWs)   bands (ev):

   -44.1540 -44.1540 -22.2649 -22.2649 -22.1762 -22.1762 -22.0918 -22.0918
    -8.2750  -8.2750  -7.0455  -7.0455  -5.8045  -5.8045  -4.7491  -4.7491
    -4.1245  -4.1245   0.5013   0.5013   0.9913   0.9913   1.3544   1.3544
     1.7271   1.7271   2.5231   2.5231   2.8745   2.8745   3.6365   3.6365
     3.9305   3.9305   4.1472   4.1472   4.2812   4.2812   4.4734   4.4734
     4.7214   4.7214   5.8397   5.8397   6.2012   6.2012   6.5771   6.5771
     6.7115   6.7115

          k = 0.2541 0.0645 0.0000 ( 36396 PWs)   bands (ev):

   -44.1536 -44.1536 -22.2630 -22.2629 -22.1857 -22.1856 -22.0908 -22.0906
    -8.2245  -8.0552  -7.0708  -6.9315  -5.9811  -5.3481  -4.7351  -4.7047
    -4.6792  -3.9403   0.2638   0.7763   0.9229   0.9689   1.2373   1.3972
     1.4302   1.5389   1.7571   2.6018   2.6359   3.1700   3.3269   3.6916
     3.7783   3.8049   3.9007   3.9337   4.0933   4.2817   4.3427   4.4454
     4.4740   4.6245   5.9661   5.9836   6.1447   6.3798   6.4348   6.7328
     7.0602   7.2496

          k = 0.2541 0.0645 0.1485 ( 36423 PWs)   bands (ev):

   -44.1536 -44.1536 -22.2630 -22.2629 -22.1857 -22.1856 -22.0908 -22.0907
    -8.2034  -8.0846  -7.0441  -6.9469  -5.9211  -5.5053  -4.7270  -4.6890
    -4.5297  -4.0225   0.3320   0.7060   0.8863   1.0070   1.1004   1.2191
     1.5000   1.7100   2.0398   2.6044   2.6186   2.9348   3.4310   3.4592
     3.5156   3.8711   3.9795   4.0519   4.0765   4.2384   4.4280   4.4773
     4.6506   4.7366   5.8951   6.0155   6.1088   6.2078   6.2497   6.8329
     7.2118   7.2282

          k = 0.2541 0.0645-0.2971 ( 36436 PWs)   bands (ev):

   -44.1536 -44.1536 -22.2630 -22.2630 -22.1856 -22.1856 -22.0907 -22.0907
    -8.1479  -8.1479  -6.9899  -6.9899  -5.7487  -5.7487  -4.7080  -4.7080
    -4.2434  -4.2434   0.5151   0.5151   0.9015   0.9015   1.1166   1.1166
     1.6845   1.6845   2.4823   2.4823   2.6455   2.6455   3.2967   3.2967
     3.6975   3.6975   4.0274   4.0274   4.1886   4.1886   4.4617   4.4617
     4.8938   4.8938   5.7855   5.7855   6.1311   6.1311   6.4893   6.4893
     7.3468   7.3468

          k = 0.5081 0.1290 0.0000 ( 36499 PWs)   bands (ev):

   -44.1527 -44.1527 -22.2583 -22.2583 -22.2085 -22.2085 -22.0882 -22.0881
    -7.8490  -7.6839  -6.9192  -6.8089  -5.8206  -5.2262  -4.9822  -4.6137
    -4.5668  -4.5011  -0.0866   0.3801   0.7224   0.8814   1.1611   1.3133
     1.6354   1.7197   1.7234   2.0735   2.1394   2.4435   2.6047   3.4412
     3.4567   3.5609   3.5792   3.7165   3.7619   3.8547   4.0165   4.2466
     4.2964   4.8219   5.9198   6.1968   6.3141   6.6128   6.6581   7.0833
     7.4170   7.5450

          k = 0.5081 0.1290 0.1485 ( 36476 PWs)   bands (ev):

   -44.1527 -44.1527 -22.2583 -22.2583 -22.2085 -22.2085 -22.0882 -22.0881
    -7.8285  -7.7128  -6.8979  -6.8212  -5.7639  -5.3867  -4.8514  -4.6088
    -4.5911  -4.5078  -0.0283   0.3315   0.7873   0.8132   1.1474   1.2423
     1.4029   1.5882   2.0008   2.0890   2.2935   2.5203   2.8858   3.3410
     3.4589   3.4953   3.5474   3.7115   3.7720   3.8023   3.8955   4.2655
     4.3061   4.4598   6.2701   6.3268   6.4539   6.6121   6.7234   6.9583
     7.2766   7.5272

          k = 0.5081 0.1290-0.2971 ( 36466 PWs)   bands (ev):

   -44.1527 -44.1527 -22.2583 -22.2583 -22.2085 -22.2085 -22.0882 -22.0882
    -7.7747  -7.7747  -6.8552  -6.8552  -5.6060  -5.6060  -4.7035  -4.7035
    -4.5447  -4.5447   0.1394   0.1394   0.9309   0.9309   0.9829   0.9829
     1.4735   1.4735   2.0553   2.0553   2.6409   2.6409   3.1874   3.1874
     3.3843   3.3843   3.5922   3.5922   3.7708   3.7708   3.9388   3.9388
     4.3497   4.3497   6.5007   6.5007   6.5737   6.5737   6.8954   6.8954
     7.2761   7.2762

          k = 0.7622 0.1934 0.0000 ( 36521 PWs)   bands (ev):

   -44.1518 -44.1518 -22.2535 -22.2535 -22.2311 -22.2311 -22.0856 -22.0856
    -7.2637  -7.0929  -6.7761  -6.6693  -5.7369  -5.5678  -5.1557  -5.1197
    -4.4856  -4.4470  -0.2872   0.0267   0.1269   0.8936   0.9089   1.3073
     1.4909   1.5949   2.0191   2.1505   2.2257   2.2813   2.4662   2.8163
     3.0129   3.2213   3.3561   3.4370   3.5276   3.6662   3.7162   3.7585
     3.8894   4.5933   6.2450   6.4880   6.6075   6.9630   6.9859   7.0387
     7.4027   7.6273

          k = 0.7622 0.1934 0.1485 ( 36503 PWs)   bands (ev):

   -44.1518 -44.1518 -22.2535 -22.2535 -22.2311 -22.2311 -22.0856 -22.0856
    -7.2439  -7.1259  -6.7536  -6.6807  -5.7085  -5.5880  -5.1551  -5.1311
    -4.4785  -4.4515  -0.2496   0.0390   0.1448   0.7605   0.9391   1.2523
     1.4992   1.5931   1.9949   2.0242   2.1736   2.5600   2.7117   2.9040
     2.9666   3.0183   3.2735   3.3375   3.5071   3.5977   3.7777   3.9298
     3.9933   4.4626   6.0858   6.4660   6.7721   6.9248   7.0497   7.1171
     7.2108   7.6716

          k = 0.7622 0.1934-0.2971 ( 36522 PWs)   bands (ev):

   -44.1518 -44.1518 -22.2535 -22.2535 -22.2311 -22.2311 -22.0856 -22.0856
    -7.1907  -7.1907  -6.7123  -6.7123  -5.6441  -5.6441  -5.1484  -5.1484
    -4.4637  -4.4637  -0.1274  -0.1274   0.4360   0.4360   1.0758   1.0758
     1.5535   1.5535   1.9853   1.9853   2.4557   2.4557   2.8529   2.8529
     2.9510   2.9510   3.2582   3.2582   3.5918   3.5918   3.9671   3.9671
     4.0855   4.0855   6.4346   6.4346   6.5517   6.5517   7.0822   7.0822
     7.5913   7.5914

          k =-1.0162-0.2579 0.0000 ( 36506 PWs)   bands (ev):

   -44.1515 -44.1515 -22.2515 -22.2515 -22.2406 -22.2406 -22.0845 -22.0845
    -6.7787  -6.7572  -6.3501  -6.3452  -6.3414  -6.3380  -5.1555  -5.1550
    -4.4272  -4.3965  -0.1744  -0.1564   0.1292   0.1504   1.0123   1.0194
     1.4666   1.6563   2.2018   2.3606   2.3891   2.4173   2.7831   2.8421
     2.8537   2.9000   3.1729   3.2220   3.2877   3.3429   3.4297   3.5999
     4.0067   4.2570   6.7029   6.7698   6.8619   6.8768   7.1360   7.2331
     7.2335   7.3093

          k =-1.0162-0.2579 0.1485 ( 36506 PWs)   bands (ev):

   -44.1515 -44.1515 -22.2515 -22.2515 -22.2406 -22.2406 -22.0845 -22.0845
    -6.7730  -6.7575  -6.3914  -6.3843  -6.3043  -6.2997  -5.1541  -5.1538
    -4.4247  -4.4030  -0.2643  -0.2587   0.3078   0.3161   1.0083   1.0164
     1.4581   1.5881   2.0877   2.2301   2.3280   2.3898   2.6300   2.6569
     2.9215   3.0147   3.1196   3.2200   3.4923   3.5417   3.5812   3.6833
     4.1243   4.2730   6.3397   6.3621   6.6054   6.6830   7.2467   7.2522
     7.4720   7.5431

          k =-1.0162-0.2579-0.2971 ( 36528 PWs)   bands (ev):

   -44.1515 -44.1515 -22.2515 -22.2515 -22.2406 -22.2406 -22.0845 -22.0845
    -6.7625  -6.7625  -6.4070  -6.4070  -6.2853  -6.2853  -5.1526  -5.1526
    -4.4159  -4.4159  -0.3212  -0.3212   0.4717   0.4717   0.9845   0.9845
     1.4995   1.4995   1.9790   1.9790   2.3374   2.3374   2.7529   2.7529
     2.7953   2.7953   3.2109   3.2109   3.6218   3.6218   3.7656   3.7656
     4.3172   4.3172   6.0046   6.0046   6.5450   6.5450   7.2606   7.2606
     7.6147   7.6147

          k = 0.5081 0.0000 0.0000 ( 36503 PWs)   bands (ev):

   -44.1527 -44.1527 -22.2583 -22.2583 -22.2085 -22.2085 -22.0882 -22.0881
    -7.8507  -7.6843  -6.9194  -6.8083  -5.8178  -5.2255  -4.9800  -4.6067
    -4.5750  -4.5005  -0.0824   0.3729   0.7239   0.8940   1.1575   1.2727
     1.6300   1.7067   1.7106   2.0808   2.1347   2.4323   2.6086   3.4330
     3.4748   3.5913   3.5920   3.6944   3.7749   3.9025   3.9956   4.2836
     4.2999   4.8110   5.9263   6.1720   6.3451   6.5766   6.6057   7.1223
     7.4211   7.5726

          k = 0.5081 0.0000 0.1485 ( 36453 PWs)   bands (ev):

   -44.1527 -44.1527 -22.2583 -22.2583 -22.2085 -22.2085 -22.0882 -22.0881
    -7.8300  -7.7134  -6.8978  -6.8205  -5.7615  -5.3858  -4.8483  -4.6092
    -4.5894  -4.5104  -0.0251   0.3259   0.7992   0.8094   1.1548   1.2283
     1.3647   1.5661   2.0005   2.1051   2.2777   2.5091   2.8878   3.3551
     3.4800   3.4834   3.5599   3.7440   3.7492   3.8577   3.8615   4.2975
     4.3278   4.4399   6.2561   6.3363   6.4726   6.5697   6.6852   6.9928
     7.2881   7.5460

          k = 0.5081 0.0000-0.2971 ( 36452 PWs)   bands (ev):

   -44.1527 -44.1527 -22.2583 -22.2583 -22.2085 -22.2085 -22.0882 -22.0882
    -7.7758  -7.7758  -6.8546  -6.8546  -5.6044  -5.6044  -4.7004  -4.7004
    -4.5470  -4.5470   0.1395   0.1395   0.9293   0.9293   0.9868   0.9868
     1.4402   1.4402   2.0600   2.0600   2.6298   2.6298   3.1943   3.1943
     3.3937   3.3937   3.5939   3.5939   3.8027   3.8027   3.9233   3.9233
     4.3668   4.3668   6.5137   6.5137   6.5391   6.5391   6.9131   6.9131
     7.2784   7.2784

          k = 0.7622 0.0645 0.0000 ( 36505 PWs)   bands (ev):

   -44.1518 -44.1518 -22.2535 -22.2535 -22.2311 -22.2311 -22.0856 -22.0856
    -7.2678  -7.0937  -6.7733  -6.6669  -5.7375  -5.5660  -5.1545  -5.1201
    -4.4741  -4.4592  -0.2790   0.0252   0.1346   0.8845   0.9382   1.3202
     1.4626   1.5559   1.9818   2.1375   2.2624   2.2992   2.4094   2.7921
     3.0041   3.2623   3.3623   3.4452   3.5948   3.6990   3.7126   3.7165
     3.8454   4.6125   6.2426   6.4574   6.6354   6.9596   6.9982   7.0175
     7.4077   7.6731

          k = 0.7622 0.0645 0.1485 ( 36509 PWs)   bands (ev):

   -44.1518 -44.1518 -22.2535 -22.2535 -22.2311 -22.2311 -22.0856 -22.0856
    -7.2477  -7.1274  -6.7503  -6.6780  -5.7090  -5.5868  -5.1540  -5.1310
    -4.4704  -4.4601  -0.2415   0.0475   0.1410   0.7509   0.9656   1.2645
     1.4725   1.5886   1.9693   1.9731   2.1675   2.5587   2.7144   2.8924
     2.9602   3.0209   3.3098   3.3406   3.5505   3.5874   3.7550   3.9641
     3.9722   4.4540   6.1102   6.4418   6.7912   6.9244   7.0255   7.1531
     7.1849   7.7026

          k = 0.7622 0.0645-0.2971 ( 36472 PWs)   bands (ev):

   -44.1518 -44.1518 -22.2535 -22.2535 -22.2311 -22.2311 -22.0856 -22.0856
    -7.1937  -7.1937  -6.7089  -6.7089  -5.6442  -5.6442  -5.1477  -5.1477
    -4.4638  -4.4638  -0.1194  -0.1194   0.4298   0.4298   1.0939   1.0939
     1.5491   1.5491   1.9321   1.9321   2.4580   2.4580   2.8579   2.8579
     2.9269   2.9269   3.3049   3.3049   3.5885   3.5885   3.9955   3.9955
     4.0495   4.0495   6.4633   6.4633   6.5493   6.5493   7.0533   7.0533
     7.6185   7.6185

          k = 1.0162 0.1290 0.0000 ( 36514 PWs)   bands (ev):

   -44.1515 -44.1515 -22.2515 -22.2515 -22.2406 -22.2406 -22.0845 -22.0845
    -6.7787  -6.7571  -6.3500  -6.3453  -6.3414  -6.3381  -5.1555  -5.1550
    -4.4272  -4.3965  -0.1800  -0.1507   0.1269   0.1528   1.0035   1.0289
     1.4739   1.6457   2.1974   2.3678   2.3964   2.4086   2.7594   2.8585
     2.8833   2.8918   3.1816   3.1942   3.2883   3.3279   3.4611   3.5911
     3.9887   4.2749   6.6963   6.7804   6.8422   6.8963   7.1621   7.2328
     7.2356   7.2858

          k = 1.0162 0.1290 0.1485 ( 36524 PWs)   bands (ev):

   -44.1515 -44.1515 -22.2515 -22.2515 -22.2406 -22.2406 -22.0845 -22.0845
    -6.7730  -6.7574  -6.3913  -6.3843  -6.3042  -6.2998  -5.1541  -5.1538
    -4.4247  -4.4030  -0.2667  -0.2565   0.3089   0.3155   1.0054   1.0193
     1.4648   1.5812   2.0940   2.2140   2.3318   2.3913   2.6168   2.6770
     2.9133   3.0274   3.1209   3.2127   3.4962   3.5107   3.6178   3.6757
     4.1037   4.2925   6.3360   6.3719   6.6016   6.6850   7.2484   7.2523
     7.4819   7.5337

          k = 1.0162 0.1290-0.2971 ( 36516 PWs)   bands (ev):

   -44.1515 -44.1515 -22.2515 -22.2515 -22.2406 -22.2406 -22.0845 -22.0845
    -6.7625  -6.7625  -6.4070  -6.4070  -6.2853  -6.2853  -5.1526  -5.1526
    -4.4159  -4.4159  -0.3213  -0.3213   0.4720   0.4720   0.9843   0.9843
     1.5007   1.5007   1.9794   1.9794   2.3327   2.3327   2.7299   2.7299
     2.8268   2.8268   3.2039   3.2039   3.6234   3.6234   3.7653   3.7653
     4.3179   4.3179   6.0077   6.0077   6.5440   6.5440   7.2613   7.2613
     7.6151   7.6151

          k =-0.7622-0.3224 0.0000 ( 36511 PWs)   bands (ev):

   -44.1518 -44.1518 -22.2535 -22.2535 -22.2311 -22.2311 -22.0856 -22.0856
    -7.2577  -7.0919  -6.7805  -6.6722  -5.7360  -5.5704  -5.1574  -5.1192
    -4.4944  -4.4373  -0.2986   0.0294   0.1152   0.8756   0.9065   1.2915
     1.5027   1.6661   2.0941   2.1717   2.2089   2.2544   2.4731   2.8540
     3.0210   3.1983   3.3439   3.4302   3.5006   3.6197   3.6960   3.6974
     4.0206   4.5588   6.2482   6.5257   6.5883   6.8834   7.0251   7.1080
     7.3845   7.5642

          k =-0.7622-0.3224 0.1485 ( 36492 PWs)   bands (ev):

   -44.1518 -44.1518 -22.2535 -22.2535 -22.2311 -22.2311 -22.0856 -22.0856
    -7.2383  -7.1236  -6.7585  -6.6843  -5.7077  -5.5896  -5.1567  -5.1312
    -4.4846  -4.4447  -0.2609   0.0282   0.1490   0.7740   0.9083   1.2352
     1.5242   1.6081   2.0233   2.1048   2.1916   2.5593   2.6830   2.9272
     2.9657   3.0429   3.2440   3.3109   3.4751   3.5789   3.7827   3.8793
     4.0518   4.4726   6.0540   6.5041   6.7384   6.9220   7.0541   7.1320
     7.2337   7.6064

          k =-0.7622-0.3224-0.2971 ( 36508 PWs)   bands (ev):

   -44.1518 -44.1518 -22.2535 -22.2535 -22.2311 -22.2311 -22.0856 -22.0856
    -7.1865  -7.1865  -6.7170  -6.7170  -5.6441  -5.6441  -5.1494  -5.1494
    -4.4635  -4.4635  -0.1383  -0.1383   0.4444   0.4444   1.0540   1.0540
     1.5610   1.5610   2.0518   2.0518   2.4628   2.4628   2.8479   2.8479
     2.9833   2.9833   3.1945   3.1945   3.5891   3.5891   3.9210   3.9210
     4.1418   4.1418   6.3999   6.3999   6.5516   6.5516   7.1277   7.1277
     7.5352   7.5354

          k =-0.5081-0.2579 0.0000 ( 36480 PWs)   bands (ev):

   -44.1527 -44.1527 -22.2583 -22.2583 -22.2085 -22.2085 -22.0882 -22.0881
    -7.8451  -7.6831  -6.9192  -6.8099  -5.8277  -5.2280  -4.9877  -4.6239
    -4.5538  -4.5023  -0.0966   0.3971   0.7190   0.8556   1.1699   1.4157
     1.6448   1.7550   1.7596   2.0605   2.1398   2.4668   2.5933   3.3789
     3.4651   3.5282   3.5718   3.6957   3.7449   3.7706   4.0732   4.1559
     4.2857   4.8455   5.9067   6.2241   6.2735   6.7054   6.7844   6.9932
     7.4022   7.4842

          k =-0.5081-0.2579 0.1485 ( 36485 PWs)   bands (ev):

   -44.1527 -44.1527 -22.2583 -22.2583 -22.2085 -22.2085 -22.0882 -22.0881
    -7.8249  -7.7113  -6.8986  -6.8225  -5.7699  -5.3889  -4.8587  -4.6076
    -4.5948  -4.5020  -0.0359   0.3448   0.7726   0.8080   1.1399   1.2686
     1.5007   1.6501   1.9893   2.0622   2.3249   2.5429   2.8797   3.2860
     3.4366   3.5033   3.5280   3.6665   3.7049   3.7791   3.9628   4.1854
     4.2702   4.4930   6.2917   6.3054   6.4207   6.7058   6.8248   6.8853
     7.2414   7.4879

          k =-0.5081-0.2579-0.2971 ( 36478 PWs)   bands (ev):

   -44.1527 -44.1527 -22.2583 -22.2583 -22.2085 -22.2085 -22.0882 -22.0882
    -7.7720  -7.7720  -6.8567  -6.8567  -5.6097  -5.6097  -4.7108  -4.7108
    -4.5396  -4.5396   0.1392   0.1392   0.9348   0.9348   0.9744   0.9744
     1.5620   1.5620   2.0377   2.0377   2.6741   2.6741   3.1515   3.1515
     3.3666   3.3666   3.5786   3.5786   3.7137   3.7137   3.9713   3.9713
     4.3114   4.3114   6.4690   6.4690   6.6514   6.6514   6.8556   6.8556
     7.2776   7.2776

          k =-0.2541-0.1934 0.0000 ( 36410 PWs)   bands (ev):

   -44.1536 -44.1536 -22.2630 -22.2629 -22.1857 -22.1856 -22.0908 -22.0906
    -8.2218  -8.0546  -7.0675  -6.9314  -5.9922  -5.3525  -4.7576  -4.7016
    -4.6628  -3.9410   0.2861   0.7685   0.9298   1.0313   1.2551   1.4113
     1.4557   1.5846   1.7752   2.5720   2.6258   3.1690   3.3802   3.6726
     3.7340   3.7618   3.8939   3.9191   3.9199   4.2056   4.2978   4.3883
     4.4189   4.6672   6.0247   6.0313   6.2294   6.3681   6.4580   6.7893
     7.0257   7.1757

          k =-0.2541-0.1934 0.1485 ( 36427 PWs)   bands (ev):

   -44.1536 -44.1536 -22.2630 -22.2629 -22.1857 -22.1856 -22.0908 -22.0907
    -8.2009  -8.0835  -7.0417  -6.9466  -5.9309  -5.5102  -4.7419  -4.6808
    -4.5267  -4.0226   0.3546   0.7060   0.8908   1.0713   1.1224   1.2527
     1.5093   1.7214   2.0750   2.5724   2.6142   2.9368   3.4412   3.4863
     3.5389   3.7984   3.8704   3.9113   4.0364   4.2042   4.3911   4.4196
     4.6154   4.7781   5.9039   6.0207   6.1279   6.2832   6.3235   6.8295
     7.1739   7.2207

          k =-0.2541-0.1934-0.2971 ( 36422 PWs)   bands (ev):

   -44.1536 -44.1536 -22.2630 -22.2630 -22.1856 -22.1856 -22.0907 -22.0907
    -8.1460  -8.1460  -6.9890  -6.9890  -5.7558  -5.7558  -4.7111  -4.7111
    -4.2424  -4.2424   0.5333   0.5333   0.9113   0.9113   1.1642   1.1642
     1.6942   1.6942   2.4861   2.4861   2.6458   2.6458   3.2998   3.2998
     3.7229   3.7229   3.8554   3.8554   4.1636   4.1636   4.4080   4.4080
     4.9106   4.9106   5.7649   5.7649   6.1898   6.1898   6.5147   6.5147
     7.3369   7.3369

          k = 0.0000-0.1290 0.0000 ( 36417 PWs)   bands (ev):

   -44.1540 -44.1539 -22.2649 -22.2649 -22.1762 -22.1762 -22.0919 -22.0917
    -8.3511  -8.1810  -7.1317  -6.9810  -6.0458  -5.3998  -4.7849  -4.7218
    -4.6410  -3.7472   0.2026   0.8175   0.8868   1.1818   1.2457   1.5631
     1.6850   1.7738   2.2543   2.8315   2.9201   2.9648   3.2083   3.4496
     3.8731   3.9664   3.9837   4.0132   4.2864   4.3878   4.4581   4.6538
     4.7550   5.1986   5.6385   5.8927   5.9087   5.9596   6.1330   6.6890
     7.1364   7.2236

          k = 0.0000-0.1290 0.1485 ( 36419 PWs)   bands (ev):

   -44.1540 -44.1540 -22.2649 -22.2649 -22.1762 -22.1762 -22.0918 -22.0917
    -8.3297  -8.2104  -7.1030  -6.9977  -5.9851  -5.5594  -4.7739  -4.7280
    -4.4555  -3.8525   0.2830   0.8787   0.9303   0.9555   1.1494   1.6968
     1.7594   1.8490   2.0085   2.8467   2.9091   2.9976   3.3512   3.5354
     3.8350   3.9561   4.0114   4.0121   4.2995   4.3330   4.4571   4.6806
     4.7452   4.8044   5.8476   5.8779   5.9010   6.2563   6.2641   6.5589
     6.9406   7.0491

          k = 0.0000-0.1290-0.2971 ( 36464 PWs)   bands (ev):

   -44.1540 -44.1540 -22.2649 -22.2649 -22.1762 -22.1762 -22.0918 -22.0918
    -8.2740  -8.2740  -7.0445  -7.0445  -5.8093  -5.8093  -4.7506  -4.7506
    -4.1242  -4.1242   0.5187   0.5187   1.0172   1.0172   1.3588   1.3588
     1.7268   1.7268   2.5361   2.5361   2.8799   2.8799   3.6468   3.6468
     3.8709   3.8709   4.1382   4.1382   4.1972   4.1972   4.4486   4.4486
     4.7183   4.7183   5.8773   5.8773   6.2157   6.2157   6.5809   6.5809
     6.6972   6.6972

          k = 1.0162 0.0000 0.0000 ( 36499 PWs)   bands (ev):

   -44.1515 -44.1515 -22.2515 -22.2515 -22.2406 -22.2406 -22.0845 -22.0845
    -6.7787  -6.7571  -6.3499  -6.3453  -6.3414  -6.3382  -5.1555  -5.1550
    -4.4272  -4.3965  -0.1839  -0.1467   0.1249   0.1548   0.9990   1.0341
     1.4823   1.6340   2.1934   2.3818   2.3929   2.4033   2.7467   2.8724
     2.8745   2.9154   3.1506   3.2238   3.2802   3.3046   3.4947   3.5773
     3.9729   4.2907   6.6910   6.7900   6.8317   6.9066   7.2139   7.2331
     7.2368   7.2371

          k = 1.0162 0.0000 0.1485 ( 36485 PWs)   bands (ev):

   -44.1515 -44.1515 -22.2515 -22.2515 -22.2406 -22.2406 -22.0845 -22.0845
    -6.7730  -6.7574  -6.3913  -6.3843  -6.3042  -6.2998  -5.1541  -5.1538
    -4.4247  -4.4030  -0.2684  -0.2550   0.3104   0.3144   1.0035   1.0212
     1.4726   1.5732   2.1017   2.1974   2.3370   2.3903   2.6121   2.6879
     2.9089   3.0373   3.1238   3.2038   3.4888   3.5051   3.6541   3.6544
     4.0865   4.3084   6.3343   6.3798   6.5981   6.6868   7.2505   7.2520
     7.5001   7.5161

          k = 1.0162 0.0000-0.2971 ( 36514 PWs)   bands (ev):

   -44.1515 -44.1515 -22.2515 -22.2515 -22.2406 -22.2406 -22.0845 -22.0845
    -6.7625  -6.7625  -6.4070  -6.4070  -6.2853  -6.2853  -5.1526  -5.1526
    -4.4159  -4.4159  -0.3214  -0.3214   0.4723   0.4723   0.9841   0.9841
     1.5020   1.5020   1.9798   1.9798   2.3280   2.3280   2.7170   2.7170
     2.8487   2.8487   3.1965   3.1965   3.6249   3.6249   3.7649   3.7649
     4.3186   4.3186   6.0109   6.0109   6.5431   6.5431   7.2620   7.2620
     7.6154   7.6154

          k = 1.2703 0.0645 0.0000 ( 36468 PWs)   bands (ev):

   -44.1518 -44.1518 -22.2535 -22.2535 -22.2311 -22.2311 -22.0856 -22.0856
    -7.2533  -7.0911  -6.7840  -6.6740  -5.7355  -5.5723  -5.1586  -5.1190
    -4.4991  -4.4320  -0.3065   0.0321   0.1062   0.8560   0.9155   1.2816
     1.5032   1.7189   2.1628   2.1938   2.2292   2.2320   2.4123   2.8847
     3.0220   3.1939   3.3703   3.4170   3.5086   3.5712   3.6305   3.6769
     4.1200   4.5239   6.2505   6.5382   6.5997   6.8254   7.0542   7.1760
     7.3535   7.5413

          k = 1.2703 0.0645 0.1485 ( 36490 PWs)   bands (ev):

   -44.1518 -44.1518 -22.2535 -22.2535 -22.2311 -22.2311 -22.0856 -22.0856
    -7.2343  -7.1220  -6.7622  -6.6867  -5.7071  -5.5907  -5.1577  -5.1313
    -4.4879  -4.4410  -0.2688   0.0211   0.1513   0.7833   0.8897   1.2241
     1.5331   1.6251   2.0418   2.1527   2.2271   2.5615   2.6360   2.9501
     2.9637   3.0752   3.2315   3.2765   3.4853   3.5334   3.7761   3.8409
     4.1073   4.4774   6.0336   6.5354   6.7085   6.9184   7.0377   7.1942
     7.2348   7.5510

          k = 1.2703 0.0645-0.2971 ( 36480 PWs)   bands (ev):

   -44.1518 -44.1518 -22.2535 -22.2535 -22.2311 -22.2311 -22.0856 -22.0856
    -7.1835  -7.1835  -6.7205  -6.7205  -5.6440  -5.6440  -5.1502  -5.1502
    -4.4634  -4.4634  -0.1459  -0.1459   0.4499   0.4499   1.0409   1.0409
     1.5670   1.5670   2.0912   2.0912   2.4786   2.4786   2.8464   2.8464
     3.0014   3.0014   3.1529   3.1529   3.5821   3.5821   3.8871   3.8871
     4.1830   4.1830   6.3782   6.3782   6.5504   6.5504   7.1643   7.1643
     7.4805   7.4806

          k =-0.5081-0.3869 0.0000 ( 36463 PWs)   bands (ev):

   -44.1527 -44.1527 -22.2583 -22.2583 -22.2085 -22.2085 -22.0882 -22.0881
    -7.8411  -7.6823  -6.9198  -6.8103  -5.8349  -5.2298  -4.9932  -4.6304
    -4.5444  -4.5035  -0.1065   0.4136   0.7159   0.8332   1.1787   1.5408
     1.6556   1.7869   1.7878   2.0386   2.1610   2.4656   2.5790   3.2861
     3.4984   3.5351   3.5718   3.5776   3.7261   3.7664   4.0377   4.1520
     4.2728   4.8660   5.8960   6.1491   6.3388   6.8071   6.9062   6.9211
     7.3659   7.4470

          k =-0.5081-0.3869 0.1485 ( 36477 PWs)   bands (ev):

   -44.1527 -44.1527 -22.2583 -22.2583 -22.2085 -22.2085 -22.0882 -22.0881
    -7.8213  -7.7098  -6.8998  -6.8234  -5.7759  -5.3911  -4.8659  -4.6061
    -4.5984  -4.4967  -0.0433   0.3577   0.7664   0.7939   1.1387   1.2904
     1.6239   1.7235   1.9546   2.0325   2.3783   2.5365   2.8703   3.2151
     3.4092   3.5074   3.5220   3.5875   3.7040   3.7487   4.0092   4.1301
     4.2311   4.5208   6.2386   6.3438   6.4028   6.7813   6.8131   6.9680
     7.1875   7.4679

          k =-0.5081-0.3869-0.2971 ( 36492 PWs)   bands (ev):

   -44.1527 -44.1527 -22.2583 -22.2583 -22.2085 -22.2085 -22.0882 -22.0882
    -7.7692  -7.7692  -6.8582  -6.8582  -5.6135  -5.6135  -4.7177  -4.7177
    -4.5348  -4.5348   0.1389   0.1389   0.9398   0.9398   0.9656   0.9656
     1.6719   1.6719   2.0024   2.0024   2.7237   2.7237   3.0743   3.0743
     3.3595   3.3595   3.5555   3.5555   3.6827   3.6827   3.9932   3.9932
     4.2820   4.2820   6.4384   6.4384   6.7013   6.7013   6.8339   6.8339
     7.2988   7.2989

          k =-0.2541-0.3224 0.0000 ( 36485 PWs)   bands (ev):

   -44.1536 -44.1536 -22.2630 -22.2629 -22.1857 -22.1856 -22.0908 -22.0906
    -8.2180  -8.0538  -7.0635  -6.9304  -6.0082  -5.3587  -4.7812  -4.6929
    -4.6521  -3.9420   0.3112   0.7595   0.9380   1.1338   1.2879   1.4388
     1.4916   1.6640   1.8037   2.5077   2.5824   3.1920   3.4648   3.5770
     3.6289   3.6580   3.7645   3.9226   3.9440   4.1359   4.1818   4.3072
     4.3712   4.7212   6.0804   6.1180   6.2826   6.3955   6.4920   6.8619
     6.9474   7.0945

          k =-0.2541-0.3224 0.1485 ( 36445 PWs)   bands (ev):

   -44.1536 -44.1536 -22.2630 -22.2629 -22.1857 -22.1856 -22.0908 -22.0907
    -8.1973  -8.0820  -7.0388  -6.9458  -5.9449  -5.5170  -4.7582  -4.6736
    -4.5230  -4.0228   0.3802   0.7058   0.8952   1.1306   1.2078   1.3088
     1.5288   1.7459   2.1311   2.5106   2.5737   2.9586   3.4312   3.4860
     3.5998   3.6167   3.6682   3.9099   3.9778   4.1427   4.3154   4.3651
     4.5988   4.8184   5.9106   6.0216   6.1592   6.3469   6.4299   6.7961
     7.1536   7.2062

          k =-0.2541-0.3224-0.2971 ( 36442 PWs)   bands (ev):

   -44.1536 -44.1536 -22.2630 -22.2630 -22.1856 -22.1856 -22.0907 -22.0907
    -8.1433  -8.1433  -6.9877  -6.9877  -5.7658  -5.7658  -4.7154  -4.7154
    -4.2408  -4.2408   0.5536   0.5536   0.9218   0.9218   1.2530   1.2530
     1.7139   1.7139   2.4809   2.4809   2.6424   2.6424   3.2971   3.2971
     3.5967   3.5967   3.8158   3.8158   4.1037   4.1037   4.3458   4.3458
     4.9319   4.9319   5.7440   5.7440   6.2229   6.2229   6.5614   6.5614
     7.3284   7.3284

          k = 0.0000-0.2579 0.0000 ( 36445 PWs)   bands (ev):

   -44.1540 -44.1540 -22.2649 -22.2649 -22.1762 -22.1762 -22.0919 -22.0917
    -8.3476  -8.1803  -7.1261  -6.9798  -6.0634  -5.4074  -4.8036  -4.7100
    -4.6385  -3.7480   0.2318   0.8249   0.9945   1.2356   1.2721   1.6342
     1.6844   1.7730   2.2470   2.8489   2.9293   2.9730   3.2045   3.5567
     3.6253   3.6952   3.9383   3.9726   4.1602   4.3322   4.3886   4.6213
     4.7517   5.1694   5.6822   5.9777   5.9948   6.0272   6.1528   6.7292
     7.0843   7.1365

          k = 0.0000-0.2579 0.1485 ( 36452 PWs)   bands (ev):

   -44.1540 -44.1540 -22.2649 -22.2649 -22.1762 -22.1762 -22.0918 -22.0917
    -8.3265  -8.2091  -7.0986  -6.9964  -6.0007  -5.5677  -4.7891  -4.7195
    -4.4542  -3.8528   0.3135   0.9203   0.9595   1.0366   1.2082   1.6962
     1.7586   1.8603   2.0515   2.8629   2.9195   3.0103   3.3230   3.5723
     3.6843   3.7148   3.9145   3.9853   4.2095   4.2873   4.3393   4.6624
     4.7413   4.7995   5.9021   5.9371   5.9783   6.2728   6.2801   6.5897
     6.9438   6.9456

          k = 0.0000-0.2579-0.2971 ( 36454 PWs)   bands (ev):

   -44.1540 -44.1540 -22.2649 -22.2649 -22.1762 -22.1762 -22.0918 -22.0918
    -8.2716  -8.2716  -7.0422  -7.0422  -5.8208  -5.8208  -4.7541  -4.7541
    -4.1235  -4.1235   0.5538   0.5538   1.0963   1.0963   1.3715   1.3715
     1.7261   1.7261   2.5689   2.5689   2.8933   2.8933   3.5498   3.5498
     3.7824   3.7824   4.0923   4.0923   4.1158   4.1158   4.3827   4.3827
     4.7111   4.7111   5.9353   5.9353   6.2526   6.2526   6.5902   6.5902
     6.6518   6.6518

          k = 1.5243 0.0000 0.0000 ( 36439 PWs)   bands (ev):

   -44.1527 -44.1527 -22.2583 -22.2583 -22.2085 -22.2085 -22.0882 -22.0881
    -7.8395  -7.6819  -6.9202  -6.8103  -5.8379  -5.2305  -4.9955  -4.6325
    -4.5411  -4.5040  -0.1105   0.4202   0.7147   0.8245   1.1824   1.6092
     1.6735   1.7655   1.8017   2.0275   2.1933   2.4438   2.5721   3.2545
     3.5110   3.5168   3.5473   3.5805   3.7046   3.7825   3.9825   4.1816
     4.2671   4.8735   5.8921   6.1150   6.3704   6.8533   6.8704   6.9874
     7.3335   7.4953

          k = 1.5243 0.0000 0.1485 ( 36476 PWs)   bands (ev):

   -44.1527 -44.1527 -22.2583 -22.2583 -22.2085 -22.2085 -22.0882 -22.0881
    -7.8197  -7.7092  -6.9004  -6.8236  -5.7784  -5.3920  -4.8689  -4.6053
    -4.6000  -4.4946  -0.0463   0.3630   0.7679   0.7840   1.1392   1.2987
     1.7182   1.7296   1.9355   2.0075   2.4437   2.4886   2.8635   3.1933
     3.3757   3.5098   3.5273   3.5705   3.7080   3.7334   3.9972   4.1412
     4.2077   4.5320   6.2123   6.3612   6.3991   6.7593   6.8425   7.0426
     7.1448   7.4912

          k = 1.5243 0.0000-0.2971 ( 36508 PWs)   bands (ev):

   -44.1527 -44.1527 -22.2583 -22.2583 -22.2085 -22.2085 -22.0882 -22.0882
    -7.7681  -7.7681  -6.8589  -6.8589  -5.6150  -5.6150  -4.7205  -4.7205
    -4.5329  -4.5329   0.1387   0.1387   0.9428   0.9428   0.9611   0.9611
     1.7325   1.7325   1.9741   1.9741   2.7557   2.7557   3.0232   3.0232
     3.3600   3.3600   3.5456   3.5456   3.6750   3.6750   3.9971   3.9971
     4.2745   4.2745   6.4260   6.4260   6.7051   6.7051   6.8373   6.8373
     7.3185   7.3185

          k =-0.2541-0.4514 0.0000 ( 36444 PWs)   bands (ev):

   -44.1536 -44.1536 -22.2630 -22.2629 -22.1857 -22.1856 -22.0908 -22.0906
    -8.2152  -8.0532  -7.0611  -6.9291  -6.0197  -5.3630  -4.7952  -4.6853
    -4.6486  -3.9427   0.3241   0.7543   0.9432   1.2282   1.3075   1.4564
     1.5169   1.7439   1.8373   2.4394   2.5121   3.2475   3.4274   3.4669
     3.5251   3.6450   3.8339   3.9258   3.9610   4.0215   4.1000   4.2458
     4.3576   4.7559   6.1075   6.1978   6.2788   6.4437   6.5157   6.8645
     6.9083   7.0540

          k =-0.2541-0.4514 0.1485 ( 36461 PWs)   bands (ev):

   -44.1536 -44.1536 -22.2630 -22.2630 -22.1857 -22.1856 -22.0908 -22.0907
    -8.1948  -8.0810  -7.0370  -6.9448  -5.9550  -5.5218  -4.7683  -4.6697
    -4.5207  -4.0229   0.3938   0.7056   0.8972   1.1595   1.2930   1.3604
     1.5511   1.7750   2.1895   2.4450   2.4990   2.9946   3.3657   3.4142
     3.5193   3.5659   3.7548   3.9054   3.9508   4.0198   4.2765   4.3428
     4.5903   4.8444   5.9145   6.0181   6.1919   6.3723   6.4965   6.7499
     7.1612   7.1949

          k =-0.2541-0.4514-0.2971 ( 36490 PWs)   bands (ev):

   -44.1536 -44.1536 -22.2630 -22.2630 -22.1856 -22.1856 -22.0907 -22.0907
    -8.1414  -8.1414  -6.9868  -6.9868  -5.7728  -5.7728  -4.7185  -4.7185
    -4.2397  -4.2397   0.5646   0.5646   0.9270   0.9270   1.3336   1.3336
     1.7363   1.7363   2.4559   2.4559   2.6418   2.6418   3.2745   3.2745
     3.4727   3.4727   3.8835   3.8835   4.0235   4.0235   4.3131   4.3131
     4.9458   4.9458   5.7319   5.7319   6.2259   6.2259   6.5939   6.5939
     7.3271   7.3271

          k = 0.0000-0.3869 0.0000 ( 36477 PWs)   bands (ev):

   -44.1540 -44.1540 -22.2649 -22.2649 -22.1762 -22.1762 -22.0919 -22.0917
    -8.3441  -8.1795  -7.1211  -6.9778  -6.0813  -5.4149  -4.8197  -4.6974
    -4.6394  -3.7488   0.2525   0.8340   1.1387   1.2963   1.2994   1.6838
     1.7099   1.7721   2.2411   2.8678   2.9380   2.9918   3.1695   3.3080
     3.4648   3.7125   3.9099   3.9899   4.0249   4.1634   4.3893   4.5889
     4.7486   5.1495   5.7261   6.0373   6.0480   6.1105   6.1728   6.7506
     6.9485   7.1363

          k = 0.0000-0.3869 0.1485 ( 36452 PWs)   bands (ev):

   -44.1540 -44.1540 -22.2649 -22.2649 -22.1762 -22.1762 -22.0918 -22.0917
    -8.3233  -8.2077  -7.0947  -6.9945  -6.0165  -5.5758  -4.8016  -4.7135
    -4.4530  -3.8530   0.3351   0.9480   0.9748   1.1821   1.2799   1.6955
     1.7578   1.8720   2.1003   2.8803   2.9297   3.0143   3.2310   3.3400
     3.4848   3.7977   3.9452   3.9581   4.0875   4.1801   4.2738   4.6456
     4.7377   4.7980   5.9581   5.9853   6.0230   6.2856   6.2965   6.5975
     6.8458   6.9469

          k = 0.0000-0.3869-0.2971 ( 36454 PWs)   bands (ev):

   -44.1540 -44.1540 -22.2649 -22.2649 -22.1762 -22.1762 -22.0918 -22.0918
    -8.2691  -8.2691  -7.0399  -7.0399  -5.8323  -5.8323  -4.7577  -4.7577
    -4.1227  -4.1227   0.5791   0.5791   1.2023   1.2023   1.3898   1.3898
     1.7254   1.7254   2.6051   2.6051   2.9072   2.9072   3.2850   3.2850
     3.8349   3.8349   4.0224   4.0224   4.0927   4.0927   4.3188   4.3188
     4.7045   4.7045   5.9666   5.9666   6.2918   6.2918   6.5936   6.5936
     6.5997   6.5997

          k =-2.0325 0.0000 0.0000 ( 36452 PWs)   bands (ev):

   -44.1540 -44.1540 -22.2649 -22.2649 -22.1762 -22.1762 -22.0919 -22.0917
    -8.3426  -8.1792  -7.1192  -6.9766  -6.0888  -5.4180  -4.8260  -4.6913
    -4.6411  -3.7491   0.2586   0.8382   1.2628   1.2710   1.3057   1.6835
     1.7545   1.7717   2.2391   2.8761   2.9414   3.0031   3.1007   3.1923
     3.3996   3.8759   3.8979   3.8998   3.9971   4.0621   4.3896   4.5756
     4.7473   5.1426   5.7441   6.0589   6.0622   6.1545   6.1812   6.7405
     6.9018   7.1363

          k =-2.0325 0.0000 0.1485 ( 36456 PWs)   bands (ev):

   -44.1540 -44.1540 -22.2649 -22.2649 -22.1762 -22.1762 -22.0918 -22.0917
    -8.3220  -8.2072  -7.0932  -6.9935  -6.0231  -5.5792  -4.8064  -4.7114
    -4.4526  -3.8530   0.3414   0.9610   0.9796   1.2748   1.2956   1.6952
     1.7575   1.8772   2.1262   2.8880   2.9338   2.9983   3.1223   3.2697
     3.4375   3.9085   3.9466   3.9570   4.0284   4.0672   4.2678   4.6390
     4.7362   4.7976   5.9803   6.0091   6.0336   6.2910   6.3034   6.5862
     6.8115   6.9482

          k =-2.0325 0.0000-0.2971 ( 36460 PWs)   bands (ev):

   -44.1540 -44.1540 -22.2649 -22.2649 -22.1762 -22.1762 -22.0918 -22.0918
    -8.2681  -8.2681  -7.0389  -7.0389  -5.8370  -5.8370  -4.7592  -4.7592
    -4.1223  -4.1223   0.5869   0.5869   1.2539   1.2539   1.4018   1.4018
     1.7251   1.7251   2.6221   2.6221   2.9131   2.9131   3.1601   3.1601
     3.8802   3.8802   3.9793   3.9793   4.0830   4.0830   4.2944   4.2944
     4.7019   4.7019   5.9749   5.9749   6.3092   6.3092   6.5658   6.5658
     6.6037   6.6037

     the Fermi energy is     5.4359 ev

!    total energy              =   -4240.92626292 Ry

     total all-electron energy =   -150287.619958 Ry
     estimated scf accuracy    <          6.7E-11 Ry
     smearing contrib. (-TS)   =       0.00000000 Ry
     internal energy E=F+TS    =   -4240.92626292 Ry

     The total energy is F=E-TS. E is the sum of the following terms:
     one-electron contribution =    -168.87836178 Ry
     hartree contribution      =     117.88440995 Ry
     xc contribution           =    -201.63653048 Ry
     ewald contribution        =    -220.75104915 Ry
     one-center paw contrib.   =   -3767.54473145 Ry

     convergence has been achieved in  17 iterations

     Forces acting on atoms (cartesian axes, Ry/au):

     atom    1 type  1   force =     0.00000000    0.02073874    0.00000000
     atom    2 type  1   force =     0.00000000   -0.02073874    0.00000000
     atom    3 type  2   force =     0.00000000   -0.00025482    0.00000000
     atom    4 type  2   force =     0.00000000    0.00025482    0.00000000
     atom    5 type  2   force =    -0.00000000   -0.00482196   -0.00317797
     atom    6 type  2   force =     0.00000000    0.00482196    0.00317797
     atom    7 type  2   force =     0.00000000   -0.00482196    0.00317797
     atom    8 type  2   force =     0.00000000    0.00482196   -0.00317797
     atom    9 type  2   force =     0.00000000   -0.03875968   -0.04547522
     atom   10 type  2   force =     0.00000000    0.03875968    0.04547522
     atom   11 type  2   force =     0.00000000   -0.03875968    0.04547522
     atom   12 type  2   force =     0.00000000    0.03875968   -0.04547522

     Total force =     0.123592     Total SCF correction =     0.000012


     Computing stress (Cartesian axis) and pressure

          total   stress  (Ry/bohr**3)                   (kbar)     P=       10.83
   0.00008732   0.00000000   0.00000000           12.84        0.00        0.00
   0.00000000   0.00003841   0.00000000            0.00        5.65        0.00
   0.00000000   0.00000000   0.00009511            0.00        0.00       13.99

 
     init_run     :     19.52s CPU     20.01s WALL (       1 calls)
     electrons    :    884.65s CPU    895.13s WALL (       1 calls)
     forces       :      6.62s CPU      6.87s WALL (       1 calls)
     stress       :     42.44s CPU     43.06s WALL (       1 calls)

     Called by init_run:
     wfcinit      :     15.07s CPU     15.25s WALL (       1 calls)
     potinit      :      1.40s CPU      1.46s WALL (       1 calls)
     hinit0       :      1.64s CPU      1.67s WALL (       1 calls)

     Called by electrons:
     c_bands      :    730.85s CPU    733.89s WALL (      18 calls)
     sum_band     :    128.39s CPU    132.38s WALL (      18 calls)
     v_of_rho     :      5.48s CPU      5.76s WALL (      18 calls)
     newd         :     14.19s CPU     17.52s WALL (      18 calls)
     PAW_pot      :      5.77s CPU      5.78s WALL (      18 calls)
     mix_rho      :      0.82s CPU      0.85s WALL (      18 calls)

     Called by c_bands:
     init_us_2    :     11.01s CPU     11.06s WALL (    2457 calls)
     cegterg      :    655.92s CPU    658.44s WALL (    1134 calls)

     Called by *egterg:
     cdiaghg      :     25.00s CPU     25.06s WALL (    7451 calls)
     h_psi        :    504.79s CPU    507.22s WALL (    7577 calls)
     s_psi        :     41.41s CPU     41.46s WALL (    7577 calls)
     g_psi        :      1.79s CPU      1.80s WALL (    6380 calls)

     Called by h_psi:
     h_psi:calbec :     35.86s CPU     35.92s WALL (    7577 calls)
     vloc_psi     :    424.90s CPU    427.13s WALL (    7577 calls)
     add_vuspsi   :     41.19s CPU     41.23s WALL (    7577 calls)

     General routines
     calbec       :     47.72s CPU     47.81s WALL (    9026 calls)
     fft          :      3.36s CPU      3.48s WALL (     258 calls)
     ffts         :      0.08s CPU      0.08s WALL (      36 calls)
     fftw         :    394.23s CPU    396.24s WALL (  400548 calls)
     interpolate  :      0.30s CPU      0.30s WALL (      18 calls)
 
     Parallel routines
 
     PWSCF        :  15m53.49s CPU  16m 5.41s WALL

 
   This run was terminated on:  15:32: 3  19Nov2021            

=------------------------------------------------------------------------------=
   JOB DONE.
=------------------------------------------------------------------------------=
