
     Program PWSCF v.6.8 starts on 19Nov2021 at 15:16: 0 

     This program is part of the open-source Quantum ESPRESSO suite
     for quantum simulation of materials; please cite
         "P. Giannozzi et al., J. Phys.:Condens. Matter 21 395502 (2009);
         "P. Giannozzi et al., J. Phys.:Condens. Matter 29 465901 (2017);
         "P. Giannozzi et al., J. Chem. Phys. 152 154105 (2020);
          URL http://www.quantum-espresso.org", 
     in publications or presentations arising from this work. More details at
     http://www.quantum-espresso.org/quote

     Parallel version (MPI), running on    10 processors

     MPI processes distributed on     1 nodes
     R & G space division:  proc/nbgrp/npool/nimage =      10
     74206 MiB available memory on the printing compute node when the environment starts
 
     Waiting for input...
     Reading input from standard input

     Current dimensions of program PWSCF are:
     Max number of different atomic species (ntypx) = 10
     Max number of k-points (npk) =  40000
     Max angular momentum in pseudopotentials (lmaxx) =  4
     file Zr.pbe-spn-kjpaw_psl.1.0.0.UPF: wavefunction(s)  4S 4P renormalized
     file Te.pbe-n-kjpaw_psl.1.0.0.UPF: wavefunction(s)  5S 5P renormalized
     Message from routine setup:
     using ibrav=0 with symmetry is DISCOURAGED, use correct ibrav instead

     Subspace diagonalization in iterative solution of the eigenvalue problem:
     a serial algorithm will be used

 
     Parallelization info
     --------------------
     sticks:   dense  smooth     PW     G-vecs:    dense   smooth      PW
     Min         734     293     87               115340    29174    4753
     Max         735     295     88               115345    29176    4760
     Sum        7345    2937    873              1153415   291749   47557
 
     Using Slab Decomposition
 


     bravais-lattice index     =            0
     lattice parameter (alat)  =      15.5510  a.u.
     unit-cell volume          =    3018.5011 (a.u.)^3
     number of atoms/cell      =           12
     number of atomic types    =            2
     number of electrons       =        84.00
     number of Kohn-Sham states=           50
     kinetic-energy cutoff     =      80.0000  Ry
     charge density cutoff     =     800.0000  Ry
     scf convergence threshold =      1.0E-10
     mixing beta               =       0.7000
     number of iterations used =            8  plain     mixing
     Exchange-correlation= SLA  PW   PBX  PBC
                           (   1   4   3   4   0   0   0)

     celldm(1)=  15.551040  celldm(2)=   0.000000  celldm(3)=   0.000000
     celldm(4)=   0.000000  celldm(5)=   0.000000  celldm(6)=   0.000000

     crystal axes: (cart. coord. in units of alat)
               a(1) = (   0.246007  -0.969268   0.000000 )  
               a(2) = (   0.246007   0.969268   0.000000 )  
               a(3) = (   0.000000   0.000000   1.683031 )  

     reciprocal axes: (cart. coord. in units 2 pi/alat)
               b(1) = (  2.032465 -0.515853  0.000000 )  
               b(2) = (  2.032465  0.515853  0.000000 )  
               b(3) = (  0.000000  0.000000  0.594166 )  


     PseudoPot. # 1 for Zr read from file:
     pseudo/Zr.pbe-spn-kjpaw_psl.1.0.0.UPF
     MD5 check sum: 02112c41713a0468aff2bb39ef194e36
     Pseudo is Projector augmented-wave + core cor, Zval = 12.0
     Generated using &quot;atomic&quot; code by A. Dal Corso  v.6.2.2
     Shape of augmentation charge: PSQ
     Using radial grid of 1225 points,  6 beta functions with: 
                l(1) =   0
                l(2) =   0
                l(3) =   1
                l(4) =   1
                l(5) =   2
                l(6) =   2
     Q(r) pseudized with 0 coefficients 


     PseudoPot. # 2 for Te read from file:
     pseudo/Te.pbe-n-kjpaw_psl.1.0.0.UPF
     MD5 check sum: 66247bff2bd9dbf220fbb0bf5ab56e9d
     Pseudo is Projector augmented-wave + core cor, Zval =  6.0
     Generated using &quot;atomic&quot; code by A. Dal Corso  v.6.3
     Shape of augmentation charge: PSQ
     Using radial grid of 1245 points,  6 beta functions with: 
                l(1) =   0
                l(2) =   0
                l(3) =   1
                l(4) =   1
                l(5) =   2
                l(6) =   2
     Q(r) pseudized with 0 coefficients 


     atomic species   valence    mass     pseudopotential
        Zr            12.00    91.22000     Zr( 1.00)
        Te             6.00   127.60000     Te( 1.00)

      8 Sym. Ops., with inversion, found ( 4 have fractional translation)



   Cartesian axes

     site n.     atom                  positions (alat units)
         1           Zr  tau(   1) = (   0.0000000   0.5988972   0.4207578  )
         2           Zr  tau(   2) = (   0.2460067   0.3703709   1.2622733  )
         3           Te  tau(   3) = (   0.2460067   0.3341135   0.4207578  )
         4           Te  tau(   4) = (   0.0000000   0.6351546   1.2622733  )
         5           Te  tau(   5) = (   0.2460067   0.8128803   0.2541484  )
         6           Te  tau(   6) = (   0.0000000   0.1563878   1.4288827  )
         7           Te  tau(   7) = (   0.2460067   0.8128803   0.5873672  )
         8           Te  tau(   8) = (   0.0000000   0.1563878   1.0956639  )
         9           Te  tau(   9) = (   0.0000000   0.4266472   0.7420978  )
        10           Te  tau(  10) = (   0.2460067   0.5426209   0.9409332  )
        11           Te  tau(  11) = (   0.0000000   0.4266472   0.0994177  )
        12           Te  tau(  12) = (   0.2460067   0.5426209   1.5836134  )

     number of k points=    63  Methfessel-Paxton smearing, width (Ry)=  0.0030
                       cart. coord. in units 2pi/alat
        k(    1) = (   0.0000000   0.0000000   0.0000000), wk =   0.0078125
        k(    2) = (   0.0000000   0.0000000   0.1485415), wk =   0.0156250
        k(    3) = (   0.0000000   0.0000000  -0.2970830), wk =   0.0078125
        k(    4) = (   0.2540581   0.0644816   0.0000000), wk =   0.0312500
        k(    5) = (   0.2540581   0.0644816   0.1485415), wk =   0.0625000
        k(    6) = (   0.2540581   0.0644816  -0.2970830), wk =   0.0312500
        k(    7) = (   0.5081162   0.1289633   0.0000000), wk =   0.0312500
        k(    8) = (   0.5081162   0.1289633   0.1485415), wk =   0.0625000
        k(    9) = (   0.5081162   0.1289633  -0.2970830), wk =   0.0312500
        k(   10) = (   0.7621743   0.1934449   0.0000000), wk =   0.0312500
        k(   11) = (   0.7621743   0.1934449   0.1485415), wk =   0.0625000
        k(   12) = (   0.7621743   0.1934449  -0.2970830), wk =   0.0312500
        k(   13) = (  -1.0162324  -0.2579266   0.0000000), wk =   0.0156250
        k(   14) = (  -1.0162324  -0.2579266   0.1485415), wk =   0.0312500
        k(   15) = (  -1.0162324  -0.2579266  -0.2970830), wk =   0.0156250
        k(   16) = (   0.5081162   0.0000000   0.0000000), wk =   0.0156250
        k(   17) = (   0.5081162   0.0000000   0.1485415), wk =   0.0312500
        k(   18) = (   0.5081162   0.0000000  -0.2970830), wk =   0.0156250
        k(   19) = (   0.7621743   0.0644816   0.0000000), wk =   0.0312500
        k(   20) = (   0.7621743   0.0644816   0.1485415), wk =   0.0625000
        k(   21) = (   0.7621743   0.0644816  -0.2970830), wk =   0.0312500
        k(   22) = (   1.0162324   0.1289633   0.0000000), wk =   0.0312500
        k(   23) = (   1.0162324   0.1289633   0.1485415), wk =   0.0625000
        k(   24) = (   1.0162324   0.1289633  -0.2970830), wk =   0.0312500
        k(   25) = (  -0.7621743  -0.3224082   0.0000000), wk =   0.0312500
        k(   26) = (  -0.7621743  -0.3224082   0.1485415), wk =   0.0625000
        k(   27) = (  -0.7621743  -0.3224082  -0.2970830), wk =   0.0312500
        k(   28) = (  -0.5081162  -0.2579266   0.0000000), wk =   0.0312500
        k(   29) = (  -0.5081162  -0.2579266   0.1485415), wk =   0.0625000
        k(   30) = (  -0.5081162  -0.2579266  -0.2970830), wk =   0.0312500
        k(   31) = (  -0.2540581  -0.1934449   0.0000000), wk =   0.0312500
        k(   32) = (  -0.2540581  -0.1934449   0.1485415), wk =   0.0625000
        k(   33) = (  -0.2540581  -0.1934449  -0.2970830), wk =   0.0312500
        k(   34) = (   0.0000000  -0.1289633   0.0000000), wk =   0.0156250
        k(   35) = (   0.0000000  -0.1289633   0.1485415), wk =   0.0312500
        k(   36) = (   0.0000000  -0.1289633  -0.2970830), wk =   0.0156250
        k(   37) = (   1.0162324   0.0000000   0.0000000), wk =   0.0156250
        k(   38) = (   1.0162324   0.0000000   0.1485415), wk =   0.0312500
        k(   39) = (   1.0162324   0.0000000  -0.2970830), wk =   0.0156250
        k(   40) = (   1.2702905   0.0644816   0.0000000), wk =   0.0312500
        k(   41) = (   1.2702905   0.0644816   0.1485415), wk =   0.0625000
        k(   42) = (   1.2702905   0.0644816  -0.2970830), wk =   0.0312500
        k(   43) = (  -0.5081162  -0.3868899   0.0000000), wk =   0.0312500
        k(   44) = (  -0.5081162  -0.3868899   0.1485415), wk =   0.0625000
        k(   45) = (  -0.5081162  -0.3868899  -0.2970830), wk =   0.0312500
        k(   46) = (  -0.2540581  -0.3224082   0.0000000), wk =   0.0312500
        k(   47) = (  -0.2540581  -0.3224082   0.1485415), wk =   0.0625000
        k(   48) = (  -0.2540581  -0.3224082  -0.2970830), wk =   0.0312500
        k(   49) = (   0.0000000  -0.2579266   0.0000000), wk =   0.0156250
        k(   50) = (   0.0000000  -0.2579266   0.1485415), wk =   0.0312500
        k(   51) = (   0.0000000  -0.2579266  -0.2970830), wk =   0.0156250
        k(   52) = (   1.5243485   0.0000000   0.0000000), wk =   0.0156250
        k(   53) = (   1.5243485   0.0000000   0.1485415), wk =   0.0312500
        k(   54) = (   1.5243485   0.0000000  -0.2970830), wk =   0.0156250
        k(   55) = (  -0.2540581  -0.4513715   0.0000000), wk =   0.0312500
        k(   56) = (  -0.2540581  -0.4513715   0.1485415), wk =   0.0625000
        k(   57) = (  -0.2540581  -0.4513715  -0.2970830), wk =   0.0312500
        k(   58) = (   0.0000000  -0.3868899   0.0000000), wk =   0.0156250
        k(   59) = (   0.0000000  -0.3868899   0.1485415), wk =   0.0312500
        k(   60) = (   0.0000000  -0.3868899  -0.2970830), wk =   0.0156250
        k(   61) = (  -2.0324647   0.0000000   0.0000000), wk =   0.0078125
        k(   62) = (  -2.0324647   0.0000000   0.1485415), wk =   0.0156250
        k(   63) = (  -2.0324647   0.0000000  -0.2970830), wk =   0.0078125

     Dense  grid:  1153415 G-vectors     FFT dimensions: ( 144, 144, 240)

     Smooth grid:   291749 G-vectors     FFT dimensions: (  90,  90, 150)

     Estimated max dynamical RAM per process >     657.19 MB

     Estimated total dynamical RAM >       6.42 GB

     Initial potential from superposition of free atoms

     starting charge   83.99353, renormalised to   84.00000
     Starting wfcs are   66 randomized atomic wfcs
     Checking if some PAW data can be deallocated... 

     total cpu time spent up to now is       19.8 secs

     Self-consistent Calculation

     iteration #  1     ecut=    80.00 Ry     beta= 0.70
     Davidson diagonalization with overlap
     ethr =  1.00E-02,  avg # of iterations =  2.1

     Threshold (ethr) on eigenvalues was too large:
     Diagonalizing with lowered threshold

     Davidson diagonalization with overlap
     ethr =  4.81E-04,  avg # of iterations =  3.9

     total cpu time spent up to now is      102.3 secs

     total energy              =   -4240.68619773 Ry
     estimated scf accuracy    <       0.45788731 Ry

     iteration #  2     ecut=    80.00 Ry     beta= 0.70
     Davidson diagonalization with overlap
     ethr =  5.45E-04,  avg # of iterations =  8.3

     total cpu time spent up to now is      165.6 secs

     total energy              =   -4240.57846432 Ry
     estimated scf accuracy    <       2.06710561 Ry

     iteration #  3     ecut=    80.00 Ry     beta= 0.70
     Davidson diagonalization with overlap
     ethr =  5.45E-04,  avg # of iterations =  5.4

     total cpu time spent up to now is      216.5 secs

     total energy              =   -4240.90848083 Ry
     estimated scf accuracy    <       0.00791412 Ry

     iteration #  4     ecut=    80.00 Ry     beta= 0.70
     Davidson diagonalization with overlap
     c_bands:  1 eigenvalues not converged
     c_bands:  1 eigenvalues not converged
     c_bands:  2 eigenvalues not converged
     c_bands:  1 eigenvalues not converged
     c_bands:  2 eigenvalues not converged
     c_bands:  2 eigenvalues not converged
     c_bands:  1 eigenvalues not converged
     c_bands:  1 eigenvalues not converged
     c_bands:  1 eigenvalues not converged
     c_bands:  2 eigenvalues not converged
     c_bands:  1 eigenvalues not converged
     c_bands:  2 eigenvalues not converged
     c_bands:  1 eigenvalues not converged
     c_bands:  1 eigenvalues not converged
     c_bands:  3 eigenvalues not converged
     c_bands:  1 eigenvalues not converged
     c_bands:  1 eigenvalues not converged
     c_bands:  1 eigenvalues not converged
     ethr =  9.42E-06,  avg # of iterations = 17.9

     total cpu time spent up to now is      314.8 secs

     total energy              =   -4240.91737003 Ry
     estimated scf accuracy    <       0.03680973 Ry

     iteration #  5     ecut=    80.00 Ry     beta= 0.70
     Davidson diagonalization with overlap
     ethr =  9.42E-06,  avg # of iterations =  6.8

     total cpu time spent up to now is      365.9 secs

     total energy              =   -4240.91925357 Ry
     estimated scf accuracy    <       0.00603334 Ry

     iteration #  6     ecut=    80.00 Ry     beta= 0.70
     Davidson diagonalization with overlap
     ethr =  7.18E-06,  avg # of iterations =  3.5

     total cpu time spent up to now is      407.7 secs

     total energy              =   -4240.91974570 Ry
     estimated scf accuracy    <       0.00100320 Ry

     iteration #  7     ecut=    80.00 Ry     beta= 0.70
     Davidson diagonalization with overlap
     ethr =  1.19E-06,  avg # of iterations =  8.4

     total cpu time spent up to now is      469.2 secs

     total energy              =   -4240.92017821 Ry
     estimated scf accuracy    <       0.00074150 Ry

     iteration #  8     ecut=    80.00 Ry     beta= 0.70
     Davidson diagonalization with overlap
     ethr =  8.83E-07,  avg # of iterations =  2.1

     total cpu time spent up to now is      505.9 secs

     total energy              =   -4240.92020459 Ry
     estimated scf accuracy    <       0.00010530 Ry

     iteration #  9     ecut=    80.00 Ry     beta= 0.70
     Davidson diagonalization with overlap
     ethr =  1.25E-07,  avg # of iterations =  6.4

     total cpu time spent up to now is      556.2 secs

     total energy              =   -4240.92023900 Ry
     estimated scf accuracy    <       0.00001270 Ry

     iteration # 10     ecut=    80.00 Ry     beta= 0.70
     Davidson diagonalization with overlap
     ethr =  1.51E-08,  avg # of iterations =  4.0

     total cpu time spent up to now is      597.8 secs

     total energy              =   -4240.92024155 Ry
     estimated scf accuracy    <       0.00000062 Ry

     iteration # 11     ecut=    80.00 Ry     beta= 0.70
     Davidson diagonalization with overlap
     ethr =  7.40E-10,  avg # of iterations =  7.9

     total cpu time spent up to now is      661.6 secs

     total energy              =   -4240.92024229 Ry
     estimated scf accuracy    <       0.00000040 Ry

     iteration # 12     ecut=    80.00 Ry     beta= 0.70
     Davidson diagonalization with overlap
     ethr =  4.74E-10,  avg # of iterations =  2.4

     total cpu time spent up to now is      699.1 secs

     total energy              =   -4240.92024231 Ry
     estimated scf accuracy    <       0.00000004 Ry

     iteration # 13     ecut=    80.00 Ry     beta= 0.70
     Davidson diagonalization with overlap
     ethr =  5.05E-11,  avg # of iterations =  7.0

     total cpu time spent up to now is      754.0 secs

     total energy              =   -4240.92024234 Ry
     estimated scf accuracy    <       0.00000002 Ry

     iteration # 14     ecut=    80.00 Ry     beta= 0.70
     Davidson diagonalization with overlap
     ethr =  2.61E-11,  avg # of iterations =  1.5

     total cpu time spent up to now is      789.9 secs

     total energy              =   -4240.92024234 Ry
     estimated scf accuracy    <          6.0E-09 Ry

     iteration # 15     ecut=    80.00 Ry     beta= 0.70
     Davidson diagonalization with overlap
     ethr =  7.17E-12,  avg # of iterations =  6.2

     total cpu time spent up to now is      837.9 secs

     total energy              =   -4240.92024234 Ry
     estimated scf accuracy    <          7.2E-10 Ry

     iteration # 16     ecut=    80.00 Ry     beta= 0.70
     Davidson diagonalization with overlap
     ethr =  8.62E-13,  avg # of iterations =  3.7

     total cpu time spent up to now is      879.1 secs

     total energy              =   -4240.92024234 Ry
     estimated scf accuracy    <          1.2E-10 Ry

     iteration # 17     ecut=    80.00 Ry     beta= 0.70
     Davidson diagonalization with overlap
     ethr =  1.37E-13,  avg # of iterations =  6.0

     total cpu time spent up to now is      929.0 secs

     End of self-consistent calculation

          k = 0.0000 0.0000 0.0000 ( 36359 PWs)   bands (ev):

   -44.1570 -44.1569 -22.2665 -22.2665 -22.1780 -22.1780 -22.0956 -22.0955
    -8.4114  -8.2520  -7.1356  -6.9906  -6.0146  -5.3924  -4.7698  -4.7211
    -4.6126  -3.7359   0.1724   0.8262   0.8527   1.1743   1.2101   1.5271
     1.6120   1.6906   2.2569   2.8311   2.9170   2.9557   3.1881   3.4242
     3.9108   3.9931   4.1207   4.1324   4.3388   4.4004   4.5219   4.6559
     4.7651   5.1747   5.6168   5.8276   5.8443   5.9457   6.1540   6.6430
     7.1554   7.2781

          k = 0.0000 0.0000 0.1485 ( 36415 PWs)   bands (ev):

   -44.1570 -44.1569 -22.2665 -22.2665 -22.1780 -22.1780 -22.0956 -22.0955
    -8.3911  -8.2791  -7.1085  -7.0070  -5.9558  -5.5447  -4.7592  -4.7274
    -4.4328  -3.8401   0.2525   0.8353   0.9161   0.9585   1.1325   1.6226
     1.6780   1.8389   1.9870   2.8455   2.9060   2.9763   3.3569   3.5060
     3.8408   4.0370   4.0972   4.1404   4.3142   4.3920   4.5125   4.6849
     4.7544   4.7878   5.8094   5.8427   5.8457   6.2332   6.2825   6.5207
     6.9555   7.0803

          k = 0.0000 0.0000-0.2971 ( 36410 PWs)   bands (ev):

   -44.1570 -44.1570 -22.2665 -22.2665 -22.1780 -22.1780 -22.0956 -22.0956
    -8.3385  -8.3385  -7.0525  -7.0525  -5.7857  -5.7857  -4.7428  -4.7428
    -4.1082  -4.1082   0.4864   0.4864   0.9969   0.9969   1.3593   1.3593
     1.6493   1.6493   2.5100   2.5100   2.8775   2.8775   3.6478   3.6478
     3.9280   3.9280   4.1583   4.1583   4.2740   4.2740   4.4864   4.4864
     4.7256   4.7256   5.8302   5.8302   6.1910   6.1910   6.5956   6.5956
     6.6895   6.6895

          k = 0.2541 0.0645 0.0000 ( 36396 PWs)   bands (ev):

   -44.1566 -44.1566 -22.2646 -22.2646 -22.1875 -22.1875 -22.0946 -22.0944
    -8.2825  -8.1247  -7.0727  -6.9407  -5.9576  -5.3438  -4.7274  -4.6845
    -4.6700  -3.9348   0.2457   0.7155   0.9322   0.9748   1.2047   1.3603
     1.3989   1.5478   1.7524   2.6050   2.6402   3.1563   3.3415   3.6888
     3.7754   3.8101   3.9074   3.9445   4.0996   4.2890   4.3417   4.4479
     4.4900   4.6358   5.9804   5.9845   6.1379   6.3317   6.4134   6.7522
     7.0656   7.2558

          k = 0.2541 0.0645 0.1485 ( 36423 PWs)   bands (ev):

   -44.1566 -44.1566 -22.2646 -22.2646 -22.1875 -22.1875 -22.0946 -22.0944
    -8.2624  -8.1516  -7.0480  -6.9556  -5.8989  -5.4943  -4.7198  -4.6827
    -4.5125  -4.0156   0.3140   0.6614   0.8714   1.0115   1.0710   1.2174
     1.4544   1.7101   2.0248   2.6080   2.6235   2.9283   3.4364   3.4692
     3.5156   3.8792   3.9838   4.0600   4.0813   4.2470   4.4375   4.4932
     4.6370   4.7410   5.8981   6.0088   6.1064   6.1985   6.2331   6.8439
     7.2115   7.2244

          k = 0.2541 0.0645-0.2971 ( 36436 PWs)   bands (ev):

   -44.1566 -44.1566 -22.2646 -22.2646 -22.1875 -22.1875 -22.0945 -22.0945
    -8.2103  -8.2103  -6.9970  -6.9970  -5.7306  -5.7306  -4.7013  -4.7013
    -4.2327  -4.2327   0.4933   0.4933   0.8674   0.8674   1.1198   1.1198
     1.6575   1.6575   2.4786   2.4786   2.6449   2.6449   3.3051   3.3051
     3.7043   3.7043   4.0347   4.0347   4.1959   4.1959   4.4738   4.4738
     4.8831   4.8831   5.7800   5.7800   6.1257   6.1257   6.4970   6.4970
     7.3419   7.3419

          k = 0.5081 0.1290 0.0000 ( 36499 PWs)   bands (ev):

   -44.1557 -44.1557 -22.2599 -22.2599 -22.2103 -22.2103 -22.0920 -22.0919
    -7.9034  -7.7495  -6.9222  -6.8180  -5.8005  -5.2212  -4.9769  -4.6071
    -4.5602  -4.5090  -0.1376   0.3425   0.7317   0.8415   1.1619   1.3169
     1.6365   1.6984   1.7220   2.0713   2.1378   2.4606   2.6206   3.4445
     3.4460   3.5576   3.5881   3.7337   3.7600   3.8557   4.0249   4.2564
     4.2924   4.8033   5.9546   6.2104   6.3274   6.6138   6.6639   7.0968
     7.4079   7.5417

          k = 0.5081 0.1290 0.1485 ( 36476 PWs)   bands (ev):

   -44.1557 -44.1557 -22.2599 -22.2599 -22.2103 -22.2103 -22.0920 -22.0919
    -7.8840  -7.7759  -6.9026  -6.8299  -5.7452  -5.3770  -4.8495  -4.6057
    -4.5856  -4.5109  -0.0779   0.2868   0.7754   0.8107   1.1428   1.2314
     1.4045   1.5911   1.9999   2.0884   2.2831   2.5318   2.8950   3.3284
     3.4589   3.4962   3.5527   3.7201   3.7790   3.8073   3.9048   4.2695
     4.3105   4.4580   6.2818   6.3431   6.4615   6.6130   6.7334   6.9734
     7.2696   7.5267

          k = 0.5081 0.1290-0.2971 ( 36466 PWs)   bands (ev):

   -44.1557 -44.1557 -22.2599 -22.2599 -22.2103 -22.2103 -22.0919 -22.0919
    -7.8334  -7.8334  -6.8625  -6.8625  -5.5911  -5.5911  -4.7028  -4.7028
    -4.5425  -4.5425   0.0916   0.0916   0.9167   0.9167   0.9835   0.9835
     1.4781   1.4781   2.0556   2.0556   2.6341   2.6341   3.1875   3.1875
     3.3826   3.3826   3.5962   3.5962   3.7765   3.7765   3.9517   3.9517
     4.3551   4.3551   6.5105   6.5105   6.5745   6.5745   6.8977   6.8977
     7.2916   7.2916

          k = 0.7622 0.1934 0.0000 ( 36521 PWs)   bands (ev):

   -44.1548 -44.1548 -22.2552 -22.2551 -22.2329 -22.2329 -22.0894 -22.0894
    -7.3090  -7.1509  -6.7799  -6.6811  -5.7447  -5.5903  -5.1571  -5.1115
    -4.4786  -4.4397  -0.3173   0.0279   0.0875   0.8836   0.9021   1.3109
     1.4918   1.5938   2.0208   2.1307   2.2251   2.2978   2.4721   2.8187
     3.0234   3.2102   3.3542   3.4287   3.5329   3.6633   3.7108   3.7628
     3.9018   4.5970   6.2823   6.5016   6.6296   6.9730   6.9945   7.0462
     7.4072   7.6227

          k = 0.7622 0.1934 0.1485 ( 36503 PWs)   bands (ev):

   -44.1548 -44.1548 -22.2552 -22.2551 -22.2329 -22.2329 -22.0894 -22.0894
    -7.2901  -7.1802  -6.7602  -6.6921  -5.7186  -5.6086  -5.1550  -5.1239
    -4.4715  -4.4443  -0.2792   0.0030   0.1437   0.7504   0.9347   1.2541
     1.4998   1.5906   1.9893   2.0211   2.1867   2.5530   2.7154   2.9069
     2.9724   3.0145   3.2733   3.3301   3.5059   3.5950   3.7894   3.9297
     3.9973   4.4636   6.1250   6.4772   6.7833   6.9381   7.0546   7.1331
     7.2230   7.6731

          k = 0.7622 0.1934-0.2971 ( 36522 PWs)   bands (ev):

   -44.1548 -44.1548 -22.2551 -22.2551 -22.2329 -22.2329 -22.0894 -22.0894
    -7.2399  -7.2399  -6.7222  -6.7222  -5.6596  -5.6596  -5.1446  -5.1446
    -4.4567  -4.4567  -0.1585  -0.1585   0.4303   0.4303   1.0742   1.0742
     1.5526   1.5526   1.9805   1.9805   2.4633   2.4633   2.8555   2.8555
     2.9466   2.9466   3.2539   3.2539   3.5900   3.5900   3.9685   3.9685
     4.0952   4.0952   6.4621   6.4621   6.5623   6.5623   7.0888   7.0888
     7.6030   7.6030

          k =-1.0162-0.2579 0.0000 ( 36506 PWs)   bands (ev):

   -44.1545 -44.1545 -22.2531 -22.2531 -22.2423 -22.2423 -22.0883 -22.0883
    -6.7879  -6.7662  -6.3897  -6.3877  -6.3861  -6.3753  -5.1421  -5.1416
    -4.4199  -4.3888  -0.1888  -0.1713   0.1142   0.1353   1.0129   1.0197
     1.4666   1.6550   2.1972   2.3541   2.3847   2.4129   2.7783   2.8460
     2.8623   2.9120   3.1706   3.2157   3.2822   3.3379   3.4283   3.5925
     4.0271   4.2732   6.7153   6.7809   6.8926   6.9060   7.1425   7.2409
     7.2410   7.3177

          k =-1.0162-0.2579 0.1485 ( 36506 PWs)   bands (ev):

   -44.1545 -44.1545 -22.2531 -22.2531 -22.2423 -22.2423 -22.0883 -22.0883
    -6.7818  -6.7660  -6.4334  -6.4264  -6.3447  -6.3400  -5.1407  -5.1404
    -4.4173  -4.3953  -0.2774  -0.2719   0.2885   0.2969   1.0092   1.0166
     1.4577   1.5871   2.0931   2.2399   2.3224   2.3883   2.6235   2.6544
     2.9200   3.0083   3.1268   3.2246   3.4801   3.5364   3.5809   3.6751
     4.1389   4.2867   6.3710   6.3935   6.6164   6.6940   7.2547   7.2596
     7.4841   7.5546

          k =-1.0162-0.2579-0.2971 ( 36528 PWs)   bands (ev):

   -44.1545 -44.1545 -22.2531 -22.2531 -22.2423 -22.2423 -22.0883 -22.0883
    -6.7707  -6.7707  -6.4496  -6.4496  -6.3256  -6.3256  -5.1393  -5.1393
    -4.4083  -4.4083  -0.3338  -0.3338   0.4466   0.4466   0.9873   0.9873
     1.4979   1.4979   1.9950   1.9950   2.3334   2.3334   2.7489   2.7489
     2.7874   2.7874   3.2168   3.2168   3.6172   3.6172   3.7589   3.7589
     4.3218   4.3218   6.0446   6.0446   6.5548   6.5548   7.2676   7.2676
     7.6285   7.6285

          k = 0.5081 0.0000 0.0000 ( 36503 PWs)   bands (ev):

   -44.1557 -44.1557 -22.2599 -22.2599 -22.2103 -22.2103 -22.0920 -22.0919
    -7.9049  -7.7498  -6.9223  -6.8177  -5.7977  -5.2203  -4.9747  -4.5999
    -4.5684  -4.5085  -0.1335   0.3352   0.7342   0.8525   1.1584   1.2776
     1.6314   1.6857   1.7078   2.0785   2.1332   2.4499   2.6250   3.4375
     3.4607   3.5900   3.6008   3.7130   3.7732   3.9024   4.0034   4.2930
     4.2962   4.7916   5.9611   6.1856   6.3575   6.5778   6.6114   7.1363
     7.4114   7.5706

          k = 0.5081 0.0000 0.1485 ( 36453 PWs)   bands (ev):

   -44.1557 -44.1557 -22.2599 -22.2599 -22.2103 -22.2103 -22.0920 -22.0919
    -7.8853  -7.7765  -6.9025  -6.8295  -5.7428  -5.3760  -4.8465  -4.6060
    -4.5836  -4.5139  -0.0748   0.2816   0.7872   0.8068   1.1491   1.2186
     1.3661   1.5691   1.9997   2.1052   2.2657   2.5216   2.8976   3.3417
     3.4826   3.4836   3.5655   3.7511   3.7599   3.8621   3.8672   4.2982
     4.3356   4.4368   6.2675   6.3518   6.4801   6.5712   6.6953   7.0083
     7.2802   7.5467

          k = 0.5081 0.0000-0.2971 ( 36452 PWs)   bands (ev):

   -44.1557 -44.1557 -22.2599 -22.2599 -22.2103 -22.2103 -22.0919 -22.0919
    -7.8344  -7.8344  -6.8621  -6.8621  -5.5895  -5.5895  -4.6998  -4.6998
    -4.5447  -4.5447   0.0919   0.0919   0.9147   0.9147   0.9874   0.9874
     1.4451   1.4451   2.0605   2.0605   2.6227   2.6227   3.1958   3.1958
     3.3923   3.3923   3.5972   3.5972   3.8087   3.8087   3.9347   3.9347
     4.3720   4.3720   6.5220   6.5220   6.5412   6.5412   6.9152   6.9152
     7.2946   7.2946

          k = 0.7622 0.0645 0.0000 ( 36505 PWs)   bands (ev):

   -44.1548 -44.1548 -22.2552 -22.2551 -22.2329 -22.2329 -22.0894 -22.0894
    -7.3127  -7.1516  -6.7770  -6.6792  -5.7454  -5.5885  -5.1558  -5.1118
    -4.4669  -4.4520  -0.3093   0.0271   0.0945   0.8747   0.9310   1.3238
     1.4647   1.5542   1.9840   2.1171   2.2614   2.3170   2.4172   2.7944
     3.0150   3.2496   3.3592   3.4384   3.5994   3.6925   3.7132   3.7257
     3.8489   4.6149   6.2801   6.4704   6.6590   6.9684   7.0055   7.0269
     7.4110   7.6714

          k = 0.7622 0.0645 0.1485 ( 36509 PWs)   bands (ev):

   -44.1548 -44.1548 -22.2552 -22.2551 -22.2329 -22.2329 -22.0894 -22.0894
    -7.2936  -7.1816  -6.7571  -6.6899  -5.7191  -5.6075  -5.1539  -5.1239
    -4.4633  -4.4530  -0.2712   0.0111   0.1403   0.7410   0.9607   1.2659
     1.4738   1.5858   1.9639   1.9678   2.1859   2.5504   2.7186   2.8950
     2.9702   3.0145   3.3080   3.3330   3.5485   3.5845   3.7703   3.9641
     3.9706   4.4545   6.1494   6.4527   6.8029   6.9372   7.0312   7.1665
     7.1990   7.7067

          k = 0.7622 0.0645-0.2971 ( 36472 PWs)   bands (ev):

   -44.1548 -44.1548 -22.2551 -22.2551 -22.2329 -22.2329 -22.0894 -22.0894
    -7.2425  -7.2425  -6.7193  -6.7193  -5.6597  -5.6597  -5.1439  -5.1439
    -4.4568  -4.4568  -0.1508  -0.1508   0.4243   0.4243   1.0919   1.0919
     1.5484   1.5484   1.9276   1.9276   2.4679   2.4679   2.8605   2.8605
     2.9217   2.9217   3.2993   3.2993   3.5867   3.5867   4.0018   4.0018
     4.0532   4.0532   6.4914   6.4914   6.5594   6.5594   7.0602   7.0602
     7.6303   7.6303

          k = 1.0162 0.1290 0.0000 ( 36514 PWs)   bands (ev):

   -44.1545 -44.1545 -22.2531 -22.2531 -22.2423 -22.2423 -22.0883 -22.0883
    -6.7879  -6.7662  -6.3897  -6.3876  -6.3861  -6.3754  -5.1421  -5.1416
    -4.4199  -4.3888  -0.1944  -0.1656   0.1120   0.1375   1.0039   1.0294
     1.4740   1.6442   2.1928   2.3616   2.3927   2.4037   2.7560   2.8676
     2.8856   2.9034   3.1737   3.1921   3.2863   3.3228   3.4549   3.5862
     4.0087   4.2915   6.7085   6.7921   6.8717   6.9266   7.1689   7.2405
     7.2431   7.2936

          k = 1.0162 0.1290 0.1485 ( 36524 PWs)   bands (ev):

   -44.1545 -44.1545 -22.2531 -22.2531 -22.2423 -22.2423 -22.0883 -22.0883
    -6.7818  -6.7660  -6.4333  -6.4264  -6.3447  -6.3401  -5.1407  -5.1404
    -4.4173  -4.3953  -0.2799  -0.2697   0.2896   0.2962   1.0059   1.0200
     1.4645   1.5800   2.0985   2.2243   2.3264   2.3902   2.6142   2.6709
     2.9098   3.0216   3.1282   3.2179   3.4858   3.5053   3.6151   3.6682
     4.1184   4.3062   6.3677   6.4034   6.6125   6.6959   7.2562   7.2597
     7.4933   7.5455

          k = 1.0162 0.1290-0.2971 ( 36516 PWs)   bands (ev):

   -44.1545 -44.1545 -22.2531 -22.2531 -22.2423 -22.2423 -22.0883 -22.0883
    -6.7707  -6.7707  -6.4496  -6.4496  -6.3256  -6.3256  -5.1393  -5.1393
    -4.4083  -4.4083  -0.3339  -0.3339   0.4469   0.4469   0.9870   0.9870
     1.4991   1.4991   1.9953   1.9953   2.3292   2.3292   2.7260   2.7260
     2.8177   2.8177   3.2105   3.2105   3.6188   3.6188   3.7586   3.7586
     4.3225   4.3225   6.0478   6.0478   6.5539   6.5539   7.2682   7.2682
     7.6285   7.6285

          k =-0.7622-0.3224 0.0000 ( 36511 PWs)   bands (ev):

   -44.1548 -44.1548 -22.2552 -22.2551 -22.2329 -22.2329 -22.0894 -22.0894
    -7.3036  -7.1499  -6.7843  -6.6833  -5.7438  -5.5927  -5.1588  -5.1110
    -4.4875  -4.4299  -0.3285   0.0302   0.0766   0.8691   0.8962   1.2953
     1.5024   1.6663   2.0937   2.1531   2.2089   2.2689   2.4761   2.8566
     3.0310   3.1909   3.3431   3.4198   3.5042   3.6172   3.6945   3.7001
     4.0359   4.5646   6.2852   6.5419   6.6067   6.8941   7.0331   7.1163
     7.3909   7.5562

          k =-0.7622-0.3224 0.1485 ( 36492 PWs)   bands (ev):

   -44.1548 -44.1548 -22.2552 -22.2551 -22.2329 -22.2329 -22.0894 -22.0894
    -7.2852  -7.1782  -6.7648  -6.6951  -5.7178  -5.6101  -5.1565  -5.1240
    -4.4777  -4.4375  -0.2903  -0.0076   0.1477   0.7634   0.9043   1.2373
     1.5238   1.6064   2.0240   2.0987   2.1972   2.5521   2.6857   2.9303
     2.9699   3.0405   3.2465   3.3035   3.4748   3.5772   3.7887   3.8795
     4.0638   4.4744   6.0931   6.5156   6.7490   6.9357   7.0633   7.1451
     7.2453   7.6042

          k =-0.7622-0.3224-0.2971 ( 36508 PWs)   bands (ev):

   -44.1548 -44.1548 -22.2551 -22.2551 -22.2329 -22.2329 -22.0894 -22.0894
    -7.2362  -7.2362  -6.7265  -6.7265  -5.6596  -5.6596  -5.1456  -5.1456
    -4.4565  -4.4565  -0.1693  -0.1693   0.4383   0.4383   1.0529   1.0529
     1.5599   1.5599   2.0472   2.0472   2.4665   2.4665   2.8509   2.8509
     2.9796   2.9796   3.1924   3.1924   3.5874   3.5874   3.9212   3.9212
     4.1547   4.1547   6.4273   6.4273   6.5623   6.5623   7.1337   7.1337
     7.5445   7.5446

          k =-0.5081-0.2579 0.0000 ( 36480 PWs)   bands (ev):

   -44.1557 -44.1557 -22.2599 -22.2599 -22.2103 -22.2103 -22.0920 -22.0919
    -7.8999  -7.7487  -6.9223  -6.8185  -5.8075  -5.2231  -4.9822  -4.6174
    -4.5470  -4.5102  -0.1474   0.3597   0.7266   0.8174   1.1705   1.4175
     1.6457   1.7296   1.7644   2.0581   2.1381   2.4830   2.6082   3.3727
     3.4707   3.5198   3.5796   3.6947   3.7594   3.7719   4.0848   4.1657
     4.2814   4.8286   5.9413   6.2387   6.2881   6.7058   6.7907   7.0058
     7.3951   7.4784

          k =-0.5081-0.2579 0.1485 ( 36485 PWs)   bands (ev):

   -44.1557 -44.1557 -22.2599 -22.2599 -22.2103 -22.2103 -22.0920 -22.0919
    -7.8807  -7.7746  -6.9033  -6.8307  -5.7511  -5.3794  -4.8565  -4.6048
    -4.5899  -4.5043  -0.0854   0.2993   0.7590   0.8077   1.1361   1.2569
     1.5024   1.6525   1.9878   2.0608   2.3175   2.5525   2.8874   3.2770
     3.4296   3.5068   3.5319   3.6722   3.7162   3.7806   3.9780   4.1921
     4.2733   4.4927   6.3078   6.3177   6.4308   6.7058   6.8333   6.9006
     7.2368   7.4850

          k =-0.5081-0.2579-0.2971 ( 36478 PWs)   bands (ev):

   -44.1557 -44.1557 -22.2599 -22.2599 -22.2103 -22.2103 -22.0919 -22.0919
    -7.8309  -7.8309  -6.8637  -6.8637  -5.5949  -5.5949  -4.7098  -4.7098
    -4.5377  -4.5377   0.0911   0.0911   0.9218   0.9218   0.9748   0.9748
     1.5658   1.5658   2.0374   2.0374   2.6682   2.6682   3.1482   3.1482
     3.3646   3.3646   3.5860   3.5860   3.7171   3.7171   3.9872   3.9872
     4.3176   4.3176   6.4793   6.4793   6.6522   6.6522   6.8586   6.8586
     7.2912   7.2912

          k =-0.2541-0.1934 0.0000 ( 36410 PWs)   bands (ev):

   -44.1566 -44.1566 -22.2646 -22.2646 -22.1875 -22.1875 -22.0946 -22.0944
    -8.2800  -8.1241  -7.0697  -6.9401  -5.9686  -5.3485  -4.7480  -4.6838
    -4.6531  -3.9354   0.2678   0.7084   0.9383   1.0348   1.2173   1.3820
     1.4242   1.5954   1.7687   2.5755   2.6300   3.1575   3.3934   3.6695
     3.7364   3.7649   3.8998   3.9204   3.9326   4.2103   4.2913   4.3983
     4.4353   4.6781   6.0339   6.0391   6.2249   6.3199   6.4385   6.8068
     7.0295   7.1838

          k =-0.2541-0.1934 0.1485 ( 36427 PWs)   bands (ev):

   -44.1566 -44.1566 -22.2646 -22.2646 -22.1875 -22.1875 -22.0946 -22.0944
    -8.2602  -8.1506  -7.0456  -6.9550  -5.9087  -5.4994  -4.7344  -4.6744
    -4.5099  -4.0157   0.3364   0.6606   0.8745   1.0727   1.0962   1.2493
     1.4666   1.7213   2.0605   2.5759   2.6188   2.9323   3.4454   3.4882
     3.5455   3.8094   3.8771   3.9124   4.0431   4.2117   4.4012   4.4341
     4.6037   4.7818   5.9089   6.0079   6.1320   6.2737   6.3083   6.8392
     7.1756   7.2159

          k =-0.2541-0.1934-0.2971 ( 36422 PWs)   bands (ev):

   -44.1566 -44.1566 -22.2646 -22.2646 -22.1875 -22.1875 -22.0945 -22.0945
    -8.2086  -8.2086  -6.9958  -6.9958  -5.7378  -5.7378  -4.7042  -4.7042
    -4.2317  -4.2317   0.5109   0.5109   0.8766   0.8766   1.1674   1.1674
     1.6679   1.6679   2.4838   2.4838   2.6447   2.6447   3.3069   3.3069
     3.7326   3.7326   3.8592   3.8592   4.1710   4.1710   4.4198   4.4198
     4.9000   4.9000   5.7615   5.7615   6.1884   6.1884   6.5179   6.5179
     7.3319   7.3319

          k = 0.0000-0.1290 0.0000 ( 36417 PWs)   bands (ev):

   -44.1570 -44.1569 -22.2665 -22.2665 -22.1780 -22.1780 -22.0956 -22.0955
    -8.4101  -8.2517  -7.1332  -6.9901  -6.0217  -5.3957  -4.7788  -4.7151
    -4.6114  -3.7362   0.1864   0.8286   0.8933   1.1860   1.2218   1.5609
     1.6118   1.6902   2.2534   2.8380   2.9210   2.9558   3.1881   3.4630
     3.8969   3.9815   3.9947   4.0134   4.2861   4.4008   4.4768   4.6421
     4.7636   5.1577   5.6344   5.8724   5.8994   5.9718   6.1622   6.6625
     7.1555   7.2197

          k = 0.0000-0.1290 0.1485 ( 36419 PWs)   bands (ev):

   -44.1570 -44.1569 -22.2665 -22.2665 -22.1780 -22.1780 -22.0956 -22.0955
    -8.3900  -8.2786  -7.1066  -7.0063  -5.9622  -5.5482  -4.7674  -4.7219
    -4.4324  -3.8402   0.2673   0.8652   0.9343   0.9645   1.1542   1.6223
     1.6777   1.8444   2.0036   2.8520   2.9105   2.9814   3.3428   3.5465
     3.8496   3.9660   4.0148   4.0260   4.3092   4.3370   4.4713   4.6770
     4.7527   4.7813   5.8392   5.8705   5.8932   6.2407   6.2892   6.5385
     6.9568   7.0376

          k = 0.0000-0.1290-0.2971 ( 36464 PWs)   bands (ev):

   -44.1570 -44.1570 -22.2665 -22.2665 -22.1780 -22.1780 -22.0956 -22.0956
    -8.3376  -8.3376  -7.0514  -7.0514  -5.7906  -5.7906  -4.7442  -4.7442
    -4.1079  -4.1079   0.5036   0.5036   1.0231   1.0231   1.3634   1.3634
     1.6490   1.6490   2.5232   2.5232   2.8830   2.8830   3.6593   3.6593
     3.8714   3.8714   4.1491   4.1491   4.1869   4.1869   4.4596   4.4596
     4.7224   4.7224   5.8692   5.8692   6.2059   6.2059   6.5995   6.5995
     6.6740   6.6740

          k = 1.0162 0.0000 0.0000 ( 36499 PWs)   bands (ev):

   -44.1545 -44.1545 -22.2531 -22.2531 -22.2423 -22.2423 -22.0883 -22.0883
    -6.7879  -6.7662  -6.3897  -6.3874  -6.3861  -6.3756  -5.1421  -5.1416
    -4.4199  -4.3888  -0.1983  -0.1616   0.1102   0.1394   0.9993   1.0346
     1.4826   1.6323   2.1887   2.3766   2.3870   2.4003   2.7433   2.8822
     2.8856   2.9178   3.1411   3.2224   3.2806   3.2987   3.4827   3.5770
     3.9927   4.3076   6.7030   6.8021   6.8608   6.9372   7.2228   7.2408
     7.2421   7.2446

          k = 1.0162 0.0000 0.1485 ( 36485 PWs)   bands (ev):

   -44.1545 -44.1545 -22.2531 -22.2531 -22.2423 -22.2423 -22.0883 -22.0883
    -6.7818  -6.7660  -6.4333  -6.4265  -6.3446  -6.3401  -5.1407  -5.1404
    -4.4173  -4.3953  -0.2816  -0.2682   0.2910   0.2952   1.0037   1.0221
     1.4724   1.5718   2.1050   2.2086   2.3317   2.3896   2.6114   2.6803
     2.9035   3.0318   3.1310   3.2098   3.4852   3.4937   3.6439   3.6539
     4.1015   4.3222   6.3663   6.4114   6.6089   6.6976   7.2580   7.2596
     7.5094   7.5297

          k = 1.0162 0.0000-0.2971 ( 36514 PWs)   bands (ev):

   -44.1545 -44.1545 -22.2531 -22.2531 -22.2423 -22.2423 -22.0883 -22.0883
    -6.7707  -6.7707  -6.4496  -6.4496  -6.3256  -6.3256  -5.1393  -5.1393
    -4.4083  -4.4083  -0.3340  -0.3340   0.4471   0.4471   0.9868   0.9868
     1.5003   1.5003   1.9955   1.9955   2.3251   2.3251   2.7132   2.7132
     2.8382   2.8382   3.2039   3.2039   3.6203   3.6203   3.7584   3.7584
     4.3233   4.3233   6.0510   6.0510   6.5529   6.5529   7.2689   7.2689
     7.6284   7.6284

          k = 1.2703 0.0645 0.0000 ( 36468 PWs)   bands (ev):

   -44.1548 -44.1548 -22.2552 -22.2551 -22.2329 -22.2329 -22.0894 -22.0894
    -7.2997  -7.1492  -6.7877  -6.6847  -5.7432  -5.5945  -5.1600  -5.1108
    -4.4922  -4.4246  -0.3363   0.0332   0.0674   0.8496   0.9050   1.2855
     1.5025   1.7200   2.1543   2.1742   2.2414   2.2441   2.4102   2.8877
     3.0314   3.1919   3.3664   3.4067   3.5094   3.5675   3.6370   3.6773
     4.1363   4.5314   6.2873   6.5586   6.6132   6.8365   7.0616   7.1855
     7.3611   7.5314

          k = 1.2703 0.0645 0.1485 ( 36490 PWs)   bands (ev):

   -44.1548 -44.1548 -22.2552 -22.2551 -22.2329 -22.2329 -22.0894 -22.0894
    -7.2816  -7.1767  -6.7684  -6.6970  -5.7172  -5.6112  -5.1576  -5.1242
    -4.4811  -4.4337  -0.2980  -0.0146   0.1500   0.7725   0.8860   1.2265
     1.5321   1.6239   2.0483   2.1429   2.2283   2.5513   2.6398   2.9533
     2.9686   3.0726   3.2371   3.2683   3.4842   3.5336   3.7789   3.8420
     4.1236   4.4796   6.0727   6.5468   6.7191   6.9321   7.0493   7.2059
     7.2463   7.5476

          k = 1.2703 0.0645-0.2971 ( 36480 PWs)   bands (ev):

   -44.1548 -44.1548 -22.2551 -22.2551 -22.2329 -22.2329 -22.0894 -22.0894
    -7.2335  -7.2335  -6.7296  -6.7296  -5.6595  -5.6595  -5.1463  -5.1463
    -4.4564  -4.4564  -0.1767  -0.1767   0.4437   0.4437   1.0401   1.0401
     1.5658   1.5658   2.0873   2.0873   2.4786   2.4786   2.8500   2.8500
     2.9970   2.9970   3.1533   3.1533   3.5802   3.5802   3.8873   3.8873
     4.1974   4.1974   6.4058   6.4058   6.5610   6.5610   7.1697   7.1697
     7.4864   7.4864

          k =-0.5081-0.3869 0.0000 ( 36463 PWs)   bands (ev):

   -44.1557 -44.1557 -22.2599 -22.2599 -22.2103 -22.2103 -22.0920 -22.0919
    -7.8963  -7.7479  -6.9230  -6.8184  -5.8145  -5.2251  -4.9875  -4.6240
    -4.5375  -4.5115  -0.1570   0.3766   0.7237   0.7937   1.1791   1.5417
     1.6564   1.7618   1.7939   2.0358   2.1584   2.4813   2.5931   3.2838
     3.5050   3.5239   3.5738   3.5839   3.7254   3.7767   4.0561   4.1601
     4.2685   4.8506   5.9305   6.1659   6.3533   6.8066   6.9185   6.9285
     7.3625   7.4384

          k =-0.5081-0.3869 0.1485 ( 36477 PWs)   bands (ev):

   -44.1557 -44.1557 -22.2599 -22.2599 -22.2103 -22.2103 -22.0920 -22.0919
    -7.8774  -7.7732  -6.9043  -6.8311  -5.7571  -5.3817  -4.8634  -4.6039
    -4.5937  -4.4986  -0.0928   0.3114   0.7498   0.7971   1.1349   1.2792
     1.6259   1.7258   1.9516   2.0305   2.3730   2.5449   2.8760   3.2108
     3.3965   3.5139   3.5260   3.5931   3.7133   3.7485   4.0301   4.1349
     4.2358   4.5218   6.2535   6.3568   6.4158   6.7885   6.8181   6.9784
     7.1857   7.4638

          k =-0.5081-0.3869-0.2971 ( 36492 PWs)   bands (ev):

   -44.1557 -44.1557 -22.2599 -22.2599 -22.2103 -22.2103 -22.0919 -22.0919
    -7.8284  -7.8284  -6.8648  -6.8648  -5.5987  -5.5987  -4.7165  -4.7165
    -4.5331  -4.5331   0.0905   0.0905   0.9276   0.9276   0.9658   0.9658
     1.6754   1.6754   2.0011   2.0011   2.7193   2.7193   3.0682   3.0682
     3.3572   3.3572   3.5661   3.5661   3.6832   3.6832   4.0112   4.0112
     4.2895   4.2895   6.4490   6.4490   6.7027   6.7027   6.8371   6.8371
     7.3109   7.3109

          k =-0.2541-0.3224 0.0000 ( 36485 PWs)   bands (ev):

   -44.1566 -44.1566 -22.2646 -22.2646 -22.1875 -22.1875 -22.0946 -22.0944
    -8.2765  -8.1234  -7.0658  -6.9385  -5.9844  -5.3550  -4.7706  -4.6748
    -4.6435  -3.9363   0.2929   0.6996   0.9463   1.1254   1.2510   1.4202
     1.4596   1.6770   1.7945   2.5118   2.5865   3.1846   3.4754   3.5806
     3.6349   3.6499   3.7740   3.9366   3.9370   4.1381   4.1813   4.3198
     4.3818   4.7339   6.0851   6.1327   6.2621   6.3643   6.4749   6.8782
     6.9515   7.1025

          k =-0.2541-0.3224 0.1485 ( 36445 PWs)   bands (ev):

   -44.1566 -44.1566 -22.2646 -22.2646 -22.1875 -22.1875 -22.0946 -22.0944
    -8.2569  -8.1493  -7.0427  -6.9536  -5.9226  -5.5065  -4.7502  -4.6671
    -4.5066  -4.0159   0.3623   0.6594   0.8774   1.1102   1.1994   1.3034
     1.4919   1.7457   2.1178   2.5146   2.5780   2.9575   3.4339   3.4817
     3.6122   3.6231   3.6732   3.9114   3.9879   4.1499   4.3287   4.3756
     4.5857   4.8246   5.9177   6.0041   6.1683   6.3391   6.4159   6.8021
     7.1581   7.2016

          k =-0.2541-0.3224-0.2971 ( 36442 PWs)   bands (ev):

   -44.1566 -44.1566 -22.2646 -22.2646 -22.1875 -22.1875 -22.0945 -22.0945
    -8.2062  -8.2062  -6.9942  -6.9942  -5.7479  -5.7479  -4.7084  -4.7084
    -4.2303  -4.2303   0.5307   0.5307   0.8867   0.8867   1.2547   1.2547
     1.6891   1.6891   2.4821   2.4821   2.6398   2.6398   3.3019   3.3019
     3.6068   3.6068   3.8190   3.8190   4.1116   4.1116   4.3572   4.3572
     4.9213   4.9213   5.7432   5.7432   6.2272   6.2272   6.5579   6.5579
     7.3235   7.3235

          k = 0.0000-0.2579 0.0000 ( 36445 PWs)   bands (ev):

   -44.1570 -44.1570 -22.2665 -22.2665 -22.1780 -22.1780 -22.0956 -22.0955
    -8.4070  -8.2510  -7.1279  -6.9883  -6.0390  -5.4037  -4.7969  -4.7027
    -4.6101  -3.7369   0.2149   0.8356   1.0008   1.2403   1.2482   1.6111
     1.6326   1.6894   2.2454   2.8555   2.9306   2.9628   3.1874   3.5700
     3.6396   3.7028   3.9534   3.9797   4.1606   4.3521   4.4016   4.6092
     4.7601   5.1303   5.6772   5.9575   5.9861   6.0402   6.1821   6.7046
     7.0788   7.1556

          k = 0.0000-0.2579 0.1485 ( 36452 PWs)   bands (ev):

   -44.1570 -44.1570 -22.2665 -22.2665 -22.1780 -22.1780 -22.0956 -22.0955
    -8.3871  -8.2774  -7.1023  -7.0045  -5.9778  -5.5568  -4.7823  -4.7132
    -4.4314  -3.8404   0.2975   0.9052   0.9675   1.0420   1.2136   1.6216
     1.6769   1.8562   2.0462   2.8683   2.9212   2.9954   3.3160   3.5885
     3.6879   3.7237   3.9177   3.9990   4.2144   4.2963   4.3553   4.6591
     4.7487   4.7759   5.8958   5.9295   5.9717   6.2567   6.3055   6.5736
     6.9292   6.9601

          k = 0.0000-0.2579-0.2971 ( 36454 PWs)   bands (ev):

   -44.1570 -44.1570 -22.2665 -22.2665 -22.1780 -22.1780 -22.0956 -22.0956
    -8.3354  -8.3354  -7.0488  -7.0488  -5.8023  -5.8023  -4.7475  -4.7475
    -4.1073  -4.1073   0.5387   0.5387   1.1018   1.1018   1.3757   1.3757
     1.6483   1.6483   2.5568   2.5568   2.8965   2.8965   3.5637   3.5637
     3.7831   3.7831   4.0828   4.0828   4.1264   4.1264   4.3896   4.3896
     4.7151   4.7151   5.9301   5.9301   6.2444   6.2444   6.6090   6.6090
     6.6255   6.6255

          k = 1.5243 0.0000 0.0000 ( 36439 PWs)   bands (ev):

   -44.1557 -44.1557 -22.2599 -22.2599 -22.2103 -22.2103 -22.0920 -22.0919
    -7.8948  -7.7476  -6.9234  -6.8181  -5.8175  -5.2258  -4.9897  -4.6262
    -4.5342  -4.5120  -0.1609   0.3835   0.7237   0.7832   1.1828   1.6097
     1.6734   1.7743   1.7755   2.0247   2.1893   2.4601   2.5859   3.2541
     3.5087   3.5240   3.5401   3.5863   3.7035   3.7889   4.0037   4.1910
     4.2628   4.8588   5.9266   6.1325   6.3850   6.8522   6.8828   6.9959
     7.3320   7.4889

          k = 1.5243 0.0000 0.1485 ( 36476 PWs)   bands (ev):

   -44.1557 -44.1557 -22.2599 -22.2599 -22.2103 -22.2103 -22.0920 -22.0919
    -7.8761  -7.7726  -6.9049  -6.8312  -5.7596  -5.3826  -4.8663  -4.6036
    -4.5950  -4.4963  -0.0957   0.3163   0.7479   0.7908   1.1353   1.2877
     1.7182   1.7350   1.9303   2.0055   2.4333   2.5025   2.8681   3.1919
     3.3631   3.5182   3.5292   3.5743   3.7154   3.7331   4.0194   4.1451
     4.2147   4.5337   6.2269   6.3744   6.4130   6.7722   6.8416   7.0539
     7.1432   7.4867

          k = 1.5243 0.0000-0.2971 ( 36508 PWs)   bands (ev):

   -44.1557 -44.1557 -22.2599 -22.2599 -22.2103 -22.2103 -22.0919 -22.0919
    -7.8274  -7.8274  -6.8653  -6.8653  -5.6003  -5.6003  -4.7192  -4.7192
    -4.5313  -4.5313   0.0902   0.0902   0.9306   0.9306   0.9616   0.9616
     1.7361   1.7361   1.9720   1.9720   2.7525   2.7525   3.0159   3.0159
     3.3574   3.3574   3.5568   3.5568   3.6748   3.6748   4.0155   4.0155
     4.2829   4.2829   6.4367   6.4367   6.7069   6.7069   6.8404   6.8404
     7.3305   7.3305

          k =-0.2541-0.4514 0.0000 ( 36444 PWs)   bands (ev):

   -44.1566 -44.1566 -22.2646 -22.2646 -22.1875 -22.1875 -22.0946 -22.0944
    -8.2740  -8.1228  -7.0636  -6.9368  -5.9957  -5.3595  -4.7841  -4.6660
    -4.6418  -3.9370   0.3060   0.6941   0.9518   1.1859   1.3041   1.4379
     1.4845   1.7573   1.8271   2.4445   2.5164   3.2446   3.4320   3.4675
     3.5340   3.6365   3.8443   3.9400   3.9512   4.0283   4.1013   4.2547
     4.3675   4.7699   6.1142   6.2132   6.2487   6.4214   6.4995   6.8707
     6.9242   7.0604

          k =-0.2541-0.4514 0.1485 ( 36461 PWs)   bands (ev):

   -44.1566 -44.1566 -22.2646 -22.2646 -22.1875 -22.1875 -22.0946 -22.0944
    -8.2547  -8.1483  -7.0410  -6.9522  -5.9326  -5.5114  -4.7600  -4.6630
    -4.5046  -4.0160   0.3763   0.6585   0.8787   1.1350   1.2791   1.3577
     1.5196   1.7746   2.1777   2.4501   2.5037   2.9963   3.3681   3.4149
     3.5184   3.5729   3.7585   3.9078   3.9633   4.0319   4.2865   4.3537
     4.5758   4.8525   5.9228   5.9990   6.2026   6.3679   6.4820   6.7524
     7.1675   7.1908

          k =-0.2541-0.4514-0.2971 ( 36490 PWs)   bands (ev):

   -44.1566 -44.1566 -22.2646 -22.2646 -22.1875 -22.1875 -22.0945 -22.0945
    -8.2045  -8.2045  -6.9931  -6.9931  -5.7551  -5.7551  -4.7113  -4.7113
    -4.2293  -4.2293   0.5417   0.5417   0.8917   0.8917   1.3323   1.3323
     1.7134   1.7134   2.4612   2.4612   2.6372   2.6372   3.2776   3.2776
     3.4808   3.4808   3.8878   3.8878   4.0329   4.0329   4.3236   4.3236
     4.9350   4.9350   5.7329   5.7329   6.2333   6.2333   6.5864   6.5864
     7.3224   7.3225

          k = 0.0000-0.3869 0.0000 ( 36477 PWs)   bands (ev):

   -44.1570 -44.1570 -22.2665 -22.2665 -22.1780 -22.1780 -22.0956 -22.0955
    -8.4038  -8.2503  -7.1231  -6.9857  -6.0567  -5.4114  -4.8124  -4.6904
    -4.6111  -3.7376   0.2353   0.8445   1.1443   1.2722   1.3047   1.6104
     1.6886   1.7085   2.2387   2.8743   2.9397   2.9799   3.1656   3.3188
     3.4588   3.7247   3.9248   3.9996   4.0263   4.1858   4.4024   4.5764
     4.7568   5.1110   5.7201   6.0171   6.0402   6.1247   6.2024   6.7348
     6.9332   7.1555

          k = 0.0000-0.3869 0.1485 ( 36452 PWs)   bands (ev):

   -44.1570 -44.1570 -22.2665 -22.2665 -22.1780 -22.1780 -22.0956 -22.0955
    -8.3842  -8.2762  -7.0984  -7.0021  -5.9935  -5.5652  -4.7945  -4.7071
    -4.4305  -3.8406   0.3191   0.9342   0.9820   1.1858   1.2849   1.6210
     1.6762   1.8678   2.0954   2.8858   2.9318   3.0058   3.2347   3.3423
     3.4792   3.8069   3.9495   3.9716   4.0953   4.1973   4.2820   4.6427
     4.7449   4.7741   5.9536   5.9755   6.0175   6.2713   6.3221   6.5910
     6.8184   6.9634

          k = 0.0000-0.3869-0.2971 ( 36454 PWs)   bands (ev):

   -44.1570 -44.1570 -22.2665 -22.2665 -22.1780 -22.1780 -22.0956 -22.0956
    -8.3333  -8.3333  -7.0462  -7.0462  -5.8139  -5.8139  -4.7509  -4.7509
    -4.1067  -4.1067   0.5645   0.5645   1.2059   1.2059   1.3940   1.3940
     1.6476   1.6476   2.5950   2.5950   2.9106   2.9106   3.2945   3.2945
     3.8339   3.8339   4.0231   4.0231   4.1029   4.1029   4.3199   4.3199
     4.7084   4.7084   5.9640   5.9640   6.2868   6.2868   6.5626   6.5626
     6.6188   6.6188

          k =-2.0325 0.0000 0.0000 ( 36452 PWs)   bands (ev):

   -44.1570 -44.1570 -22.2665 -22.2665 -22.1780 -22.1780 -22.0956 -22.0955
    -8.4025  -8.2500  -7.1213  -6.9844  -6.0642  -5.4146  -4.8184  -4.6850
    -4.6123  -3.7379   0.2414   0.8487   1.2665   1.2779   1.2815   1.6102
     1.6883   1.7529   2.2364   2.8826   2.9432   2.9904   3.1074   3.2046
     3.3809   3.8843   3.9052   3.9128   4.0075   4.0853   4.4027   4.5628
     4.7554   5.1042   5.7378   6.0369   6.0564   6.1693   6.2108   6.7353
     6.8749   7.1554

          k =-2.0325 0.0000 0.1485 ( 36456 PWs)   bands (ev):

   -44.1570 -44.1570 -22.2665 -22.2665 -22.1780 -22.1780 -22.0956 -22.0955
    -8.3830  -8.2757  -7.0969  -7.0009  -6.0001  -5.5687  -4.7992  -4.7049
    -4.4302  -3.8406   0.3256   0.9468   0.9871   1.2791   1.2988   1.6207
     1.6758   1.8729   2.1218   2.8935   2.9360   2.9979   3.1301   3.2632
     3.4265   3.9149   3.9596   3.9601   4.0426   4.0847   4.2756   4.6363
     4.7434   4.7734   5.9774   5.9962   6.0291   6.2786   6.3291   6.5860
     6.7768   6.9648

          k =-2.0325 0.0000-0.2971 ( 36460 PWs)   bands (ev):

   -44.1570 -44.1570 -22.2665 -22.2665 -22.1780 -22.1780 -22.0956 -22.0956
    -8.3323  -8.3323  -7.0451  -7.0451  -5.8187  -5.8187  -4.7524  -4.7524
    -4.1064  -4.1064   0.5727   0.5727   1.2560   1.2560   1.4064   1.4064
     1.6473   1.6473   2.6139   2.6139   2.9166   2.9166   3.1674   3.1674
     3.8728   3.8728   3.9904   3.9904   4.0930   4.0930   4.2922   4.2922
     4.7058   4.7058   5.9734   5.9734   6.3068   6.3068   6.5315   6.5315
     6.6229   6.6229

     the Fermi energy is     5.4397 ev

!    total energy              =   -4240.92024234 Ry

     total all-electron energy =   -150287.613937 Ry
     estimated scf accuracy    <          1.2E-11 Ry
     smearing contrib. (-TS)   =       0.00000000 Ry
     internal energy E=F+TS    =   -4240.92024234 Ry

     The total energy is F=E-TS. E is the sum of the following terms:
     one-electron contribution =    -169.05953844 Ry
     hartree contribution      =     117.97089708 Ry
     xc contribution           =    -201.65189178 Ry
     ewald contribution        =    -220.63184639 Ry
     one-center paw contrib.   =   -3767.54786281 Ry

     convergence has been achieved in  17 iterations

     Forces acting on atoms (cartesian axes, Ry/au):

     atom    1 type  1   force =     0.00000000    0.02262256    0.00000000
     atom    2 type  1   force =     0.00000000   -0.02262256    0.00000000
     atom    3 type  2   force =     0.00000000   -0.00030726    0.00000000
     atom    4 type  2   force =     0.00000000    0.00030726    0.00000000
     atom    5 type  2   force =     0.00000000   -0.00527217   -0.00363219
     atom    6 type  2   force =     0.00000000    0.00527217    0.00363219
     atom    7 type  2   force =     0.00000000   -0.00527217    0.00363219
     atom    8 type  2   force =     0.00000000    0.00527217   -0.00363219
     atom    9 type  2   force =     0.00000000   -0.04308215   -0.05117955
     atom   10 type  2   force =     0.00000000    0.04308215    0.05117955
     atom   11 type  2   force =     0.00000000   -0.04308215    0.05117955
     atom   12 type  2   force =     0.00000000    0.04308215   -0.05117955

     Total force =     0.138164     Total SCF correction =     0.000005


     Computing stress (Cartesian axis) and pressure

          total   stress  (Ry/bohr**3)                   (kbar)     P=       12.23
   0.00010138   0.00000000   0.00000000           14.91        0.00        0.00
   0.00000000   0.00004175   0.00000000            0.00        6.14        0.00
   0.00000000   0.00000000   0.00010637            0.00        0.00       15.65

 
     init_run     :     18.96s CPU     19.47s WALL (       1 calls)
     electrons    :    898.68s CPU    909.24s WALL (       1 calls)
     forces       :      6.79s CPU      7.01s WALL (       1 calls)
     stress       :     43.35s CPU     43.94s WALL (       1 calls)

     Called by init_run:
     wfcinit      :     14.43s CPU     14.62s WALL (       1 calls)
     potinit      :      1.50s CPU      1.54s WALL (       1 calls)
     hinit0       :      1.67s CPU      1.71s WALL (       1 calls)

     Called by electrons:
     c_bands      :    741.64s CPU    744.77s WALL (      18 calls)
     sum_band     :    132.20s CPU    136.26s WALL (      18 calls)
     v_of_rho     :      5.51s CPU      5.78s WALL (      18 calls)
     newd         :     13.92s CPU     17.19s WALL (      18 calls)
     PAW_pot      :      5.70s CPU      5.71s WALL (      18 calls)
     mix_rho      :      0.79s CPU      0.82s WALL (      18 calls)

     Called by c_bands:
     init_us_2    :     11.25s CPU     11.29s WALL (    2457 calls)
     cegterg      :    666.99s CPU    669.64s WALL (    1134 calls)

     Called by *egterg:
     cdiaghg      :     25.53s CPU     25.59s WALL (    7594 calls)
     h_psi        :    511.38s CPU    513.92s WALL (    7720 calls)
     s_psi        :     42.31s CPU     42.38s WALL (    7720 calls)
     g_psi        :      1.83s CPU      1.84s WALL (    6523 calls)

     Called by h_psi:
     h_psi:calbec :     36.37s CPU     36.44s WALL (    7720 calls)
     vloc_psi     :    430.00s CPU    432.31s WALL (    7720 calls)
     add_vuspsi   :     42.13s CPU     42.20s WALL (    7720 calls)

     General routines
     calbec       :     48.72s CPU     48.82s WALL (    9169 calls)
     fft          :      3.30s CPU      3.41s WALL (     258 calls)
     ffts         :      0.09s CPU      0.09s WALL (      36 calls)
     fftw         :    404.48s CPU    406.57s WALL (  407184 calls)
     interpolate  :      0.29s CPU      0.29s WALL (      18 calls)
 
     Parallel routines
 
     PWSCF        :  16m 8.03s CPU  16m19.99s WALL

 
   This run was terminated on:  15:32:20  19Nov2021            

=------------------------------------------------------------------------------=
   JOB DONE.
=------------------------------------------------------------------------------=
