
     Program PWSCF v.6.8 starts on 19Nov2021 at 15:15:55 

     This program is part of the open-source Quantum ESPRESSO suite
     for quantum simulation of materials; please cite
         "P. Giannozzi et al., J. Phys.:Condens. Matter 21 395502 (2009);
         "P. Giannozzi et al., J. Phys.:Condens. Matter 29 465901 (2017);
         "P. Giannozzi et al., J. Chem. Phys. 152 154105 (2020);
          URL http://www.quantum-espresso.org", 
     in publications or presentations arising from this work. More details at
     http://www.quantum-espresso.org/quote

     Parallel version (MPI), running on    10 processors

     MPI processes distributed on     1 nodes
     R & G space division:  proc/nbgrp/npool/nimage =      10
     70370 MiB available memory on the printing compute node when the environment starts
 
     Waiting for input...
     Reading input from standard input

     Current dimensions of program PWSCF are:
     Max number of different atomic species (ntypx) = 10
     Max number of k-points (npk) =  40000
     Max angular momentum in pseudopotentials (lmaxx) =  4
     file Zr.pbe-spn-kjpaw_psl.1.0.0.UPF: wavefunction(s)  4S 4P renormalized
     file Te.pbe-n-kjpaw_psl.1.0.0.UPF: wavefunction(s)  5S 5P renormalized
     Message from routine setup:
     using ibrav=0 with symmetry is DISCOURAGED, use correct ibrav instead

     Subspace diagonalization in iterative solution of the eigenvalue problem:
     a serial algorithm will be used

 
     Parallelization info
     --------------------
     sticks:   dense  smooth     PW     G-vecs:    dense   smooth      PW
     Min         734     293     87               115340    29174    4753
     Max         735     295     88               115345    29176    4760
     Sum        7345    2937    873              1153415   291749   47557
 
     Using Slab Decomposition
 


     bravais-lattice index     =            0
     lattice parameter (alat)  =      15.5510  a.u.
     unit-cell volume          =    3018.5011 (a.u.)^3
     number of atoms/cell      =           12
     number of atomic types    =            2
     number of electrons       =        84.00
     number of Kohn-Sham states=           50
     kinetic-energy cutoff     =      80.0000  Ry
     charge density cutoff     =     800.0000  Ry
     scf convergence threshold =      1.0E-10
     mixing beta               =       0.7000
     number of iterations used =            8  plain     mixing
     Exchange-correlation= SLA  PW   PBX  PBC
                           (   1   4   3   4   0   0   0)

     celldm(1)=  15.551040  celldm(2)=   0.000000  celldm(3)=   0.000000
     celldm(4)=   0.000000  celldm(5)=   0.000000  celldm(6)=   0.000000

     crystal axes: (cart. coord. in units of alat)
               a(1) = (   0.246007  -0.969268   0.000000 )  
               a(2) = (   0.246007   0.969268   0.000000 )  
               a(3) = (   0.000000   0.000000   1.683031 )  

     reciprocal axes: (cart. coord. in units 2 pi/alat)
               b(1) = (  2.032465 -0.515853  0.000000 )  
               b(2) = (  2.032465  0.515853  0.000000 )  
               b(3) = (  0.000000  0.000000  0.594166 )  


     PseudoPot. # 1 for Zr read from file:
     pseudo/Zr.pbe-spn-kjpaw_psl.1.0.0.UPF
     MD5 check sum: 02112c41713a0468aff2bb39ef194e36
     Pseudo is Projector augmented-wave + core cor, Zval = 12.0
     Generated using &quot;atomic&quot; code by A. Dal Corso  v.6.2.2
     Shape of augmentation charge: PSQ
     Using radial grid of 1225 points,  6 beta functions with: 
                l(1) =   0
                l(2) =   0
                l(3) =   1
                l(4) =   1
                l(5) =   2
                l(6) =   2
     Q(r) pseudized with 0 coefficients 


     PseudoPot. # 2 for Te read from file:
     pseudo/Te.pbe-n-kjpaw_psl.1.0.0.UPF
     MD5 check sum: 66247bff2bd9dbf220fbb0bf5ab56e9d
     Pseudo is Projector augmented-wave + core cor, Zval =  6.0
     Generated using &quot;atomic&quot; code by A. Dal Corso  v.6.3
     Shape of augmentation charge: PSQ
     Using radial grid of 1245 points,  6 beta functions with: 
                l(1) =   0
                l(2) =   0
                l(3) =   1
                l(4) =   1
                l(5) =   2
                l(6) =   2
     Q(r) pseudized with 0 coefficients 


     atomic species   valence    mass     pseudopotential
        Zr            12.00    91.22000     Zr( 1.00)
        Te             6.00   127.60000     Te( 1.00)

      8 Sym. Ops., with inversion, found ( 4 have fractional translation)



   Cartesian axes

     site n.     atom                  positions (alat units)
         1           Zr  tau(   1) = (   0.0000000   0.5996718   0.4207578  )
         2           Zr  tau(   2) = (   0.2460067   0.3695963   1.2622733  )
         3           Te  tau(   3) = (   0.2460067   0.3341291   0.4207578  )
         4           Te  tau(   4) = (   0.0000000   0.6351390   1.2622733  )
         5           Te  tau(   5) = (   0.2460067   0.8125277   0.2539077  )
         6           Te  tau(   6) = (   0.0000000   0.1567404   1.4291234  )
         7           Te  tau(   7) = (   0.2460067   0.8125277   0.5876079  )
         8           Te  tau(   8) = (   0.0000000   0.1567404   1.0954232  )
         9           Te  tau(   9) = (   0.0000000   0.4252902   0.7408032  )
        10           Te  tau(  10) = (   0.2460067   0.5439779   0.9422279  )
        11           Te  tau(  11) = (   0.0000000   0.4252902   0.1007124  )
        12           Te  tau(  12) = (   0.2460067   0.5439779   1.5823187  )

     number of k points=    63  Methfessel-Paxton smearing, width (Ry)=  0.0030
                       cart. coord. in units 2pi/alat
        k(    1) = (   0.0000000   0.0000000   0.0000000), wk =   0.0078125
        k(    2) = (   0.0000000   0.0000000   0.1485415), wk =   0.0156250
        k(    3) = (   0.0000000   0.0000000  -0.2970830), wk =   0.0078125
        k(    4) = (   0.2540581   0.0644816   0.0000000), wk =   0.0312500
        k(    5) = (   0.2540581   0.0644816   0.1485415), wk =   0.0625000
        k(    6) = (   0.2540581   0.0644816  -0.2970830), wk =   0.0312500
        k(    7) = (   0.5081162   0.1289633   0.0000000), wk =   0.0312500
        k(    8) = (   0.5081162   0.1289633   0.1485415), wk =   0.0625000
        k(    9) = (   0.5081162   0.1289633  -0.2970830), wk =   0.0312500
        k(   10) = (   0.7621743   0.1934449   0.0000000), wk =   0.0312500
        k(   11) = (   0.7621743   0.1934449   0.1485415), wk =   0.0625000
        k(   12) = (   0.7621743   0.1934449  -0.2970830), wk =   0.0312500
        k(   13) = (  -1.0162324  -0.2579266   0.0000000), wk =   0.0156250
        k(   14) = (  -1.0162324  -0.2579266   0.1485415), wk =   0.0312500
        k(   15) = (  -1.0162324  -0.2579266  -0.2970830), wk =   0.0156250
        k(   16) = (   0.5081162   0.0000000   0.0000000), wk =   0.0156250
        k(   17) = (   0.5081162   0.0000000   0.1485415), wk =   0.0312500
        k(   18) = (   0.5081162   0.0000000  -0.2970830), wk =   0.0156250
        k(   19) = (   0.7621743   0.0644816   0.0000000), wk =   0.0312500
        k(   20) = (   0.7621743   0.0644816   0.1485415), wk =   0.0625000
        k(   21) = (   0.7621743   0.0644816  -0.2970830), wk =   0.0312500
        k(   22) = (   1.0162324   0.1289633   0.0000000), wk =   0.0312500
        k(   23) = (   1.0162324   0.1289633   0.1485415), wk =   0.0625000
        k(   24) = (   1.0162324   0.1289633  -0.2970830), wk =   0.0312500
        k(   25) = (  -0.7621743  -0.3224082   0.0000000), wk =   0.0312500
        k(   26) = (  -0.7621743  -0.3224082   0.1485415), wk =   0.0625000
        k(   27) = (  -0.7621743  -0.3224082  -0.2970830), wk =   0.0312500
        k(   28) = (  -0.5081162  -0.2579266   0.0000000), wk =   0.0312500
        k(   29) = (  -0.5081162  -0.2579266   0.1485415), wk =   0.0625000
        k(   30) = (  -0.5081162  -0.2579266  -0.2970830), wk =   0.0312500
        k(   31) = (  -0.2540581  -0.1934449   0.0000000), wk =   0.0312500
        k(   32) = (  -0.2540581  -0.1934449   0.1485415), wk =   0.0625000
        k(   33) = (  -0.2540581  -0.1934449  -0.2970830), wk =   0.0312500
        k(   34) = (   0.0000000  -0.1289633   0.0000000), wk =   0.0156250
        k(   35) = (   0.0000000  -0.1289633   0.1485415), wk =   0.0312500
        k(   36) = (   0.0000000  -0.1289633  -0.2970830), wk =   0.0156250
        k(   37) = (   1.0162324   0.0000000   0.0000000), wk =   0.0156250
        k(   38) = (   1.0162324   0.0000000   0.1485415), wk =   0.0312500
        k(   39) = (   1.0162324   0.0000000  -0.2970830), wk =   0.0156250
        k(   40) = (   1.2702905   0.0644816   0.0000000), wk =   0.0312500
        k(   41) = (   1.2702905   0.0644816   0.1485415), wk =   0.0625000
        k(   42) = (   1.2702905   0.0644816  -0.2970830), wk =   0.0312500
        k(   43) = (  -0.5081162  -0.3868899   0.0000000), wk =   0.0312500
        k(   44) = (  -0.5081162  -0.3868899   0.1485415), wk =   0.0625000
        k(   45) = (  -0.5081162  -0.3868899  -0.2970830), wk =   0.0312500
        k(   46) = (  -0.2540581  -0.3224082   0.0000000), wk =   0.0312500
        k(   47) = (  -0.2540581  -0.3224082   0.1485415), wk =   0.0625000
        k(   48) = (  -0.2540581  -0.3224082  -0.2970830), wk =   0.0312500
        k(   49) = (   0.0000000  -0.2579266   0.0000000), wk =   0.0156250
        k(   50) = (   0.0000000  -0.2579266   0.1485415), wk =   0.0312500
        k(   51) = (   0.0000000  -0.2579266  -0.2970830), wk =   0.0156250
        k(   52) = (   1.5243485   0.0000000   0.0000000), wk =   0.0156250
        k(   53) = (   1.5243485   0.0000000   0.1485415), wk =   0.0312500
        k(   54) = (   1.5243485   0.0000000  -0.2970830), wk =   0.0156250
        k(   55) = (  -0.2540581  -0.4513715   0.0000000), wk =   0.0312500
        k(   56) = (  -0.2540581  -0.4513715   0.1485415), wk =   0.0625000
        k(   57) = (  -0.2540581  -0.4513715  -0.2970830), wk =   0.0312500
        k(   58) = (   0.0000000  -0.3868899   0.0000000), wk =   0.0156250
        k(   59) = (   0.0000000  -0.3868899   0.1485415), wk =   0.0312500
        k(   60) = (   0.0000000  -0.3868899  -0.2970830), wk =   0.0156250
        k(   61) = (  -2.0324647   0.0000000   0.0000000), wk =   0.0078125
        k(   62) = (  -2.0324647   0.0000000   0.1485415), wk =   0.0156250
        k(   63) = (  -2.0324647   0.0000000  -0.2970830), wk =   0.0078125

     Dense  grid:  1153415 G-vectors     FFT dimensions: ( 144, 144, 240)

     Smooth grid:   291749 G-vectors     FFT dimensions: (  90,  90, 150)

     Estimated max dynamical RAM per process >     657.19 MB

     Estimated total dynamical RAM >       6.42 GB

     Initial potential from superposition of free atoms

     starting charge   83.99353, renormalised to   84.00000
     Starting wfcs are   66 randomized atomic wfcs
     Checking if some PAW data can be deallocated... 

     total cpu time spent up to now is       19.3 secs

     Self-consistent Calculation

     iteration #  1     ecut=    80.00 Ry     beta= 0.70
     Davidson diagonalization with overlap
     ethr =  1.00E-02,  avg # of iterations =  2.2

     Threshold (ethr) on eigenvalues was too large:
     Diagonalizing with lowered threshold

     Davidson diagonalization with overlap
     ethr =  4.72E-04,  avg # of iterations =  3.9

     total cpu time spent up to now is      102.5 secs

     total energy              =   -4240.69593018 Ry
     estimated scf accuracy    <       0.45462014 Ry

     iteration #  2     ecut=    80.00 Ry     beta= 0.70
     Davidson diagonalization with overlap
     ethr =  5.41E-04,  avg # of iterations =  8.2

     total cpu time spent up to now is      165.3 secs

     total energy              =   -4240.59259259 Ry
     estimated scf accuracy    <       2.05045041 Ry

     iteration #  3     ecut=    80.00 Ry     beta= 0.70
     Davidson diagonalization with overlap
     ethr =  5.41E-04,  avg # of iterations =  5.3

     total cpu time spent up to now is      215.9 secs

     total energy              =   -4240.91548234 Ry
     estimated scf accuracy    <       0.00782709 Ry

     iteration #  4     ecut=    80.00 Ry     beta= 0.70
     Davidson diagonalization with overlap
     c_bands:  1 eigenvalues not converged
     c_bands:  1 eigenvalues not converged
     c_bands:  2 eigenvalues not converged
     c_bands:  1 eigenvalues not converged
     c_bands:  1 eigenvalues not converged
     c_bands:  2 eigenvalues not converged
     c_bands:  1 eigenvalues not converged
     c_bands:  1 eigenvalues not converged
     c_bands:  1 eigenvalues not converged
     c_bands:  1 eigenvalues not converged
     c_bands:  2 eigenvalues not converged
     c_bands:  1 eigenvalues not converged
     c_bands:  1 eigenvalues not converged
     c_bands:  1 eigenvalues not converged
     c_bands:  1 eigenvalues not converged
     c_bands:  1 eigenvalues not converged
     c_bands:  3 eigenvalues not converged
     c_bands:  1 eigenvalues not converged
     c_bands:  1 eigenvalues not converged
     c_bands:  1 eigenvalues not converged
     c_bands:  1 eigenvalues not converged
     c_bands:  1 eigenvalues not converged
     c_bands:  1 eigenvalues not converged
     c_bands:  1 eigenvalues not converged
     ethr =  9.32E-06,  avg # of iterations = 17.9

     total cpu time spent up to now is      315.5 secs

     total energy              =   -4240.92523077 Ry
     estimated scf accuracy    <       0.04035219 Ry

     iteration #  5     ecut=    80.00 Ry     beta= 0.70
     Davidson diagonalization with overlap
     ethr =  9.32E-06,  avg # of iterations =  6.9

     total cpu time spent up to now is      367.2 secs

     total energy              =   -4240.92705031 Ry
     estimated scf accuracy    <       0.00678658 Ry

     iteration #  6     ecut=    80.00 Ry     beta= 0.70
     Davidson diagonalization with overlap
     ethr =  8.08E-06,  avg # of iterations =  3.1

     total cpu time spent up to now is      407.4 secs

     total energy              =   -4240.92757677 Ry
     estimated scf accuracy    <       0.00105878 Ry

     iteration #  7     ecut=    80.00 Ry     beta= 0.70
     Davidson diagonalization with overlap
     ethr =  1.26E-06,  avg # of iterations =  9.1

     total cpu time spent up to now is      469.7 secs

     total energy              =   -4240.92804698 Ry
     estimated scf accuracy    <       0.00087948 Ry

     iteration #  8     ecut=    80.00 Ry     beta= 0.70
     Davidson diagonalization with overlap
     ethr =  1.05E-06,  avg # of iterations =  2.2

     total cpu time spent up to now is      506.2 secs

     total energy              =   -4240.92807946 Ry
     estimated scf accuracy    <       0.00012147 Ry

     iteration #  9     ecut=    80.00 Ry     beta= 0.70
     Davidson diagonalization with overlap
     ethr =  1.45E-07,  avg # of iterations =  6.3

     total cpu time spent up to now is      556.1 secs

     total energy              =   -4240.92811969 Ry
     estimated scf accuracy    <       0.00001481 Ry

     iteration # 10     ecut=    80.00 Ry     beta= 0.70
     Davidson diagonalization with overlap
     ethr =  1.76E-08,  avg # of iterations =  3.8

     total cpu time spent up to now is      596.5 secs

     total energy              =   -4240.92812242 Ry
     estimated scf accuracy    <       0.00000086 Ry

     iteration # 11     ecut=    80.00 Ry     beta= 0.70
     Davidson diagonalization with overlap
     ethr =  1.03E-09,  avg # of iterations =  8.4

     total cpu time spent up to now is      657.6 secs

     total energy              =   -4240.92812329 Ry
     estimated scf accuracy    <       0.00000038 Ry

     iteration # 12     ecut=    80.00 Ry     beta= 0.70
     Davidson diagonalization with overlap
     ethr =  4.50E-10,  avg # of iterations =  3.1

     total cpu time spent up to now is      696.9 secs

     total energy              =   -4240.92812333 Ry
     estimated scf accuracy    <       0.00000003 Ry

     iteration # 13     ecut=    80.00 Ry     beta= 0.70
     Davidson diagonalization with overlap
     ethr =  3.59E-11,  avg # of iterations =  7.8

     total cpu time spent up to now is      755.3 secs

     total energy              =   -4240.92812335 Ry
     estimated scf accuracy    <       0.00000002 Ry

     iteration # 14     ecut=    80.00 Ry     beta= 0.70
     Davidson diagonalization with overlap
     ethr =  2.04E-11,  avg # of iterations =  2.3

     total cpu time spent up to now is      791.3 secs

     total energy              =   -4240.92812335 Ry
     estimated scf accuracy    <          4.7E-09 Ry

     iteration # 15     ecut=    80.00 Ry     beta= 0.70
     Davidson diagonalization with overlap
     ethr =  5.63E-12,  avg # of iterations =  6.2

     total cpu time spent up to now is      839.2 secs

     total energy              =   -4240.92812335 Ry
     estimated scf accuracy    <          5.4E-10 Ry

     iteration # 16     ecut=    80.00 Ry     beta= 0.70
     Davidson diagonalization with overlap
     ethr =  6.41E-13,  avg # of iterations =  3.8

     total cpu time spent up to now is      879.5 secs

     total energy              =   -4240.92812335 Ry
     estimated scf accuracy    <          1.4E-10 Ry

     iteration # 17     ecut=    80.00 Ry     beta= 0.70
     Davidson diagonalization with overlap
     ethr =  1.64E-13,  avg # of iterations =  6.0

     total cpu time spent up to now is      926.6 secs

     End of self-consistent calculation

          k = 0.0000 0.0000 0.0000 ( 36359 PWs)   bands (ev):

   -44.1530 -44.1530 -22.2644 -22.2644 -22.1756 -22.1756 -22.0907 -22.0905
    -8.3333  -8.1580  -7.1337  -6.9780  -6.0468  -5.3980  -4.7779  -4.7290
    -4.6530  -3.7505   0.1935   0.8113   0.8440   1.1687   1.2420   1.5306
     1.7091   1.8017   2.2582   2.8223   2.9160   2.9670   3.2155   3.4062
     3.8856   3.9727   4.1121   4.1162   4.3396   4.3831   4.4977   4.6713
     4.7536   5.2305   5.6218   5.8545   5.8576   5.9299   6.1153   6.6782
     7.1302   7.2835

          k = 0.0000 0.0000 0.1485 ( 36415 PWs)   bands (ev):

   -44.1530 -44.1530 -22.2644 -22.2644 -22.1756 -22.1756 -22.0906 -22.0905
    -8.3114  -8.1885  -7.1037  -6.9951  -5.9863  -5.5598  -4.7676  -4.7355
    -4.4637  -3.8564   0.2729   0.8457   0.9185   0.9460   1.1263   1.7213
     1.7866   1.8456   1.9930   2.8384   2.9044   2.9979   3.3688   3.4916
     3.8243   4.0183   4.0823   4.1302   4.3007   4.3864   4.4952   4.6898
     4.7443   4.8179   5.8238   5.8536   5.8541   6.2493   6.2538   6.5488
     6.9340   7.0939

          k = 0.0000 0.0000-0.2971 ( 36410 PWs)   bands (ev):

   -44.1530 -44.1530 -22.2644 -22.2644 -22.1756 -22.1756 -22.0906 -22.0906
    -8.2542  -8.2542  -7.0430  -7.0430  -5.8108  -5.8108  -4.7512  -4.7512
    -4.1297  -4.1297   0.5061   0.5061   0.9894   0.9894   1.3530   1.3530
     1.7526   1.7526   2.5274   2.5274   2.8736   2.8736   3.6327   3.6327
     3.9310   3.9310   4.1435   4.1435   4.2837   4.2837   4.4692   4.4692
     4.7201   4.7201   5.8428   5.8428   6.2041   6.2041   6.5711   6.5711
     6.7193   6.7193

          k = 0.2541 0.0645 0.0000 ( 36396 PWs)   bands (ev):

   -44.1526 -44.1526 -22.2625 -22.2625 -22.1851 -22.1851 -22.0896 -22.0894
    -8.2057  -8.0323  -7.0702  -6.9284  -5.9891  -5.3494  -4.7381  -4.7116
    -4.6816  -3.9422   0.2697   0.7960   0.9201   0.9669   1.2441   1.4133
     1.4407   1.5357   1.7590   2.6007   2.6344   3.1744   3.3220   3.6926
     3.7790   3.8031   3.8984   3.9300   4.0912   4.2795   4.3428   4.4444
     4.4693   4.6208   5.9614   5.9832   6.1469   6.3954   6.4416   6.7266
     7.0584   7.2474

          k = 0.2541 0.0645 0.1485 ( 36423 PWs)   bands (ev):

   -44.1526 -44.1526 -22.2625 -22.2625 -22.1851 -22.1851 -22.0896 -22.0895
    -8.1841  -8.0625  -7.0427  -6.9439  -5.9286  -5.5090  -4.7294  -4.6911
    -4.5352  -4.0247   0.3378   0.7199   0.8904   1.0053   1.1106   1.2193
     1.5164   1.7103   2.0450   2.6032   2.6170   2.9368   3.4291   3.4558
     3.5158   3.8684   3.9780   4.0492   4.0749   4.2355   4.4249   4.4721
     4.6551   4.7354   5.8940   6.0164   6.1100   6.2107   6.2556   6.8293
     7.2117   7.2299

          k = 0.2541 0.0645-0.2971 ( 36436 PWs)   bands (ev):

   -44.1526 -44.1526 -22.2625 -22.2625 -22.1851 -22.1851 -22.0895 -22.0895
    -8.1275  -8.1275  -6.9875  -6.9875  -5.7548  -5.7548  -4.7103  -4.7103
    -4.2469  -4.2469   0.5219   0.5219   0.9121   0.9121   1.1157   1.1157
     1.6943   1.6943   2.4833   2.4833   2.6458   2.6458   3.2938   3.2938
     3.6952   3.6952   4.0249   4.0249   4.1862   4.1862   4.4577   4.4577
     4.8974   4.8974   5.7870   5.7870   6.1327   6.1327   6.4868   6.4868
     7.3484   7.3485

          k = 0.5081 0.1290 0.0000 ( 36499 PWs)   bands (ev):

   -44.1518 -44.1518 -22.2578 -22.2578 -22.2079 -22.2079 -22.0870 -22.0869
    -7.8313  -7.6623  -6.9182  -6.8058  -5.8275  -5.2279  -4.9841  -4.6159
    -4.5690  -4.4985  -0.0697   0.3919   0.7193   0.8953   1.1610   1.3122
     1.6350   1.7189   1.7317   2.0743   2.1400   2.4376   2.5993   3.4396
     3.4605   3.5619   3.5761   3.7107   3.7625   3.8544   4.0137   4.2436
     4.2981   4.8282   5.9083   6.1922   6.3093   6.6124   6.6563   7.0789
     7.4198   7.5460

          k = 0.5081 0.1290 0.1485 ( 36476 PWs)   bands (ev):

   -44.1518 -44.1518 -22.2578 -22.2578 -22.2079 -22.2079 -22.0870 -22.0869
    -7.8105  -7.6921  -6.8963  -6.8182  -5.7703  -5.3900  -4.8521  -4.6100
    -4.5929  -4.5067  -0.0119   0.3458   0.7881   0.8174   1.1494   1.2458
     1.4024   1.5872   2.0011   2.0893   2.2969   2.5164   2.8828   3.3451
     3.4586   3.4952   3.5456   3.7084   3.7699   3.8006   3.8926   4.2642
     4.3048   4.4605   6.2661   6.3214   6.4512   6.6118   6.7203   6.9533
     7.2786   7.5272

          k = 0.5081 0.1290-0.2971 ( 36466 PWs)   bands (ev):

   -44.1518 -44.1518 -22.2578 -22.2578 -22.2079 -22.2079 -22.0869 -22.0869
    -7.7555  -7.7555  -6.8527  -6.8527  -5.6110  -5.6110  -4.7039  -4.7039
    -4.5454  -4.5454   0.1550   0.1550   0.9355   0.9355   0.9830   0.9830
     1.4720   1.4720   2.0552   2.0552   2.6431   2.6431   3.1873   3.1873
     3.3849   3.3849   3.5908   3.5908   3.7689   3.7689   3.9346   3.9346
     4.3480   4.3480   6.4974   6.4974   6.5735   6.5735   6.8944   6.8944
     7.2710   7.2710

          k = 0.7622 0.1934 0.0000 ( 36521 PWs)   bands (ev):

   -44.1509 -44.1509 -22.2530 -22.2530 -22.2306 -22.2306 -22.0844 -22.0843
    -7.2491  -7.0739  -6.7748  -6.6651  -5.7348  -5.5606  -5.1552  -5.1225
    -4.4880  -4.4495  -0.2770   0.0262   0.1400   0.8971   0.9112   1.3060
     1.4906   1.5953   2.0184   2.1568   2.2259   2.2759   2.4643   2.8156
     3.0094   3.2246   3.3565   3.4401   3.5258   3.6669   3.7184   3.7571
     3.8854   4.5920   6.2327   6.4835   6.6000   6.9596   6.9829   7.0361
     7.4010   7.6286

          k = 0.7622 0.1934 0.1485 ( 36503 PWs)   bands (ev):

   -44.1509 -44.1509 -22.2530 -22.2530 -22.2306 -22.2306 -22.0844 -22.0843
    -7.2290  -7.1082  -6.7512  -6.6766  -5.7056  -5.5814  -5.1550  -5.1335
    -4.4808  -4.4539  -0.2398   0.0509   0.1453   0.7641   0.9405   1.2517
     1.4990   1.5940   1.9965   2.0253   2.1693   2.5624   2.7105   2.9030
     2.9641   3.0200   3.2735   3.3399   3.5076   3.5986   3.7737   3.9298
     3.9922   4.4624   6.0728   6.4623   6.7684   6.9202   7.0479   7.1115
     7.2068   7.6707

          k = 0.7622 0.1934-0.2971 ( 36522 PWs)   bands (ev):

   -44.1509 -44.1509 -22.2530 -22.2530 -22.2306 -22.2306 -22.0844 -22.0844
    -7.1748  -7.1748  -6.7087  -6.7087  -5.6394  -5.6394  -5.1496  -5.1496
    -4.4660  -4.4660  -0.1171  -0.1171   0.4381   0.4381   1.0763   1.0763
     1.5538   1.5538   1.9868   1.9868   2.4532   2.4532   2.8520   2.8520
     2.9524   2.9524   3.2598   3.2598   3.5924   3.5924   3.9664   3.9664
     4.0825   4.0825   6.4254   6.4254   6.5482   6.5482   7.0799   7.0799
     7.5872   7.5872

          k =-1.0162-0.2579 0.0000 ( 36506 PWs)   bands (ev):

   -44.1505 -44.1505 -22.2510 -22.2510 -22.2400 -22.2400 -22.0833 -22.0833
    -6.7758  -6.7544  -6.3377  -6.3307  -6.3268  -6.3256  -5.1601  -5.1596
    -4.4296  -4.3990  -0.1695  -0.1514   0.1342   0.1555   1.0121   1.0193
     1.4666   1.6568   2.2033   2.3626   2.3905   2.4186   2.7847   2.8408
     2.8510   2.8961   3.1737   3.2240   3.2896   3.3446   3.4302   3.6025
     3.9998   4.2516   6.6988   6.7661   6.8517   6.8670   7.1336   7.2304
     7.2309   7.3062

          k =-1.0162-0.2579 0.1485 ( 36506 PWs)   bands (ev):

   -44.1505 -44.1505 -22.2510 -22.2510 -22.2400 -22.2400 -22.0833 -22.0833
    -6.7703  -6.7548  -6.3776  -6.3705  -6.2909  -6.2864  -5.1587  -5.1583
    -4.4272  -4.4056  -0.2598  -0.2542   0.3143   0.3226   1.0080   1.0163
     1.4583   1.5885   2.0857   2.2266   2.3299   2.3903   2.6322   2.6578
     2.9221   3.0168   3.1172   3.2185   3.4963   3.5433   3.5814   3.6861
     4.1196   4.2685   6.3292   6.3516   6.6018   6.6793   7.2439   7.2496
     7.4679   7.5390

          k =-1.0162-0.2579-0.2971 ( 36528 PWs)   bands (ev):

   -44.1505 -44.1505 -22.2510 -22.2510 -22.2400 -22.2400 -22.0833 -22.0833
    -6.7599  -6.7599  -6.3931  -6.3931  -6.2720  -6.2720  -5.1571  -5.1571
    -4.4184  -4.4184  -0.3169  -0.3169   0.4802   0.4802   0.9836   0.9836
     1.5001   1.5001   1.9735   1.9735   2.3388   2.3388   2.7539   2.7539
     2.7982   2.7982   3.2089   3.2089   3.6232   3.6232   3.7678   3.7678
     4.3160   4.3160   5.9913   5.9913   6.5417   6.5417   7.2582   7.2582
     7.6099   7.6099

          k = 0.5081 0.0000 0.0000 ( 36503 PWs)   bands (ev):

   -44.1518 -44.1518 -22.2578 -22.2578 -22.2079 -22.2079 -22.0870 -22.0869
    -7.8330  -7.6626  -6.9184  -6.8051  -5.8245  -5.2272  -4.9818  -4.6090
    -4.5772  -4.4980  -0.0655   0.3848   0.7204   0.9085   1.1573   1.2710
     1.6296   1.7063   1.7188   2.0817   2.1353   2.4264   2.6031   3.4315
     3.4794   3.5890   3.5916   3.6882   3.7754   3.9026   3.9930   4.2806
     4.3015   4.8176   5.9148   6.1676   6.3406   6.5762   6.6039   7.1177
     7.4241   7.5733

          k = 0.5081 0.0000 0.1485 ( 36453 PWs)   bands (ev):

   -44.1518 -44.1518 -22.2578 -22.2578 -22.2079 -22.2079 -22.0870 -22.0869
    -7.8120  -7.6927  -6.8961  -6.8174  -5.7678  -5.3890  -4.8490  -4.6105
    -4.5913  -4.5092  -0.0087   0.3400   0.7968   0.8169   1.1572   1.2312
     1.3645   1.5651   2.0007   2.1051   2.2818   2.5049   2.8846   3.3595
     3.4788   3.4836   3.5580   3.7386   3.7485   3.8563   3.8597   4.2974
     4.3253   4.4410   6.2523   6.3311   6.4699   6.5691   6.6820   6.9877
     7.2904   7.5457

          k = 0.5081 0.0000-0.2971 ( 36452 PWs)   bands (ev):

   -44.1518 -44.1518 -22.2578 -22.2578 -22.2079 -22.2079 -22.0869 -22.0869
    -7.7567  -7.7567  -6.8520  -6.8520  -5.6095  -5.6095  -4.7008  -4.7008
    -4.5477  -4.5477   0.1551   0.1551   0.9341   0.9341   0.9869   0.9869
     1.4386   1.4386   2.0598   2.0598   2.6321   2.6321   3.1937   3.1937
     3.3942   3.3942   3.5928   3.5928   3.8007   3.8007   3.9196   3.9196
     4.3651   4.3651   6.5107   6.5107   6.5386   6.5386   6.9123   6.9123
     7.2732   7.2732

          k = 0.7622 0.0645 0.0000 ( 36505 PWs)   bands (ev):

   -44.1509 -44.1509 -22.2530 -22.2530 -22.2306 -22.2306 -22.0844 -22.0843
    -7.2533  -7.0746  -6.7721  -6.6626  -5.7353  -5.5587  -5.1539  -5.1229
    -4.4765  -4.4616  -0.2688   0.0246   0.1480   0.8879   0.9407   1.3190
     1.4619   1.5565   1.9810   2.1443   2.2626   2.2932   2.4069   2.7914
     3.0005   3.2662   3.3631   3.4479   3.5931   3.7001   3.7084   3.7189
     3.8443   4.6117   6.2303   6.4531   6.6275   6.9565   6.9957   7.0143
     7.4063   7.6734

          k = 0.7622 0.0645 0.1485 ( 36509 PWs)   bands (ev):

   -44.1509 -44.1509 -22.2530 -22.2530 -22.2306 -22.2306 -22.0844 -22.0843
    -7.2329  -7.1098  -6.7479  -6.6738  -5.7062  -5.5803  -5.1539  -5.1334
    -4.4727  -4.4624  -0.2316   0.0596   0.1414   0.7543   0.9672   1.2640
     1.4721   1.5896   1.9699   1.9761   2.1614   2.5614   2.7130   2.8916
     2.9567   3.0232   3.3102   3.3432   3.5512   3.5884   3.7499   3.9642
     3.9727   4.4541   6.0971   6.4381   6.7873   6.9199   7.0235   7.1484
     7.1804   7.7009

          k = 0.7622 0.0645-0.2971 ( 36472 PWs)   bands (ev):

   -44.1509 -44.1509 -22.2530 -22.2530 -22.2306 -22.2306 -22.0844 -22.0844
    -7.1779  -7.1779  -6.7053  -6.7053  -5.6394  -5.6394  -5.1488  -5.1488
    -4.4661  -4.4661  -0.1091  -0.1091   0.4318   0.4318   1.0946   1.0946
     1.5494   1.5494   1.9336   1.9336   2.4547   2.4547   2.8570   2.8570
     2.9287   2.9287   3.3069   3.3069   3.5891   3.5891   3.9928   3.9928
     4.0490   4.0490   6.4539   6.4539   6.5460   6.5460   7.0509   7.0509
     7.6144   7.6144

          k = 1.0162 0.1290 0.0000 ( 36514 PWs)   bands (ev):

   -44.1505 -44.1505 -22.2510 -22.2510 -22.2400 -22.2400 -22.0833 -22.0833
    -6.7758  -6.7544  -6.3376  -6.3307  -6.3268  -6.3257  -5.1601  -5.1596
    -4.4296  -4.3990  -0.1751  -0.1457   0.1319   0.1579   1.0034   1.0287
     1.4739   1.6462   2.1989   2.3697   2.3975   2.4100   2.7606   2.8555
     2.8825   2.8881   3.1842   3.1950   3.2889   3.3297   3.4632   3.5928
     3.9820   4.2694   6.6922   6.7766   6.8324   6.8862   7.1597   7.2301
     7.2330   7.2830

          k = 1.0162 0.1290 0.1485 ( 36524 PWs)   bands (ev):

   -44.1505 -44.1505 -22.2510 -22.2510 -22.2400 -22.2400 -22.0833 -22.0833
    -6.7703  -6.7548  -6.3776  -6.3705  -6.2908  -6.2864  -5.1587  -5.1583
    -4.4272  -4.4056  -0.2623  -0.2520   0.3155   0.3220   1.0053   1.0191
     1.4650   1.5815   2.0923   2.2104   2.3337   2.3916   2.6178   2.6791
     2.9145   3.0294   3.1184   3.2110   3.4992   3.5129   3.6186   3.6783
     4.0988   4.2879   6.3255   6.3614   6.5980   6.6814   7.2457   7.2497
     7.4779   7.5296

          k = 1.0162 0.1290-0.2971 ( 36516 PWs)   bands (ev):

   -44.1505 -44.1505 -22.2510 -22.2510 -22.2400 -22.2400 -22.0833 -22.0833
    -6.7599  -6.7599  -6.3931  -6.3931  -6.2720  -6.2720  -5.1571  -5.1571
    -4.4184  -4.4184  -0.3170  -0.3170   0.4805   0.4805   0.9834   0.9834
     1.5013   1.5013   1.9739   1.9739   2.3338   2.3338   2.7311   2.7311
     2.8300   2.8300   3.2017   3.2017   3.6247   3.6247   3.7675   3.7675
     4.3167   4.3167   5.9944   5.9944   6.5408   6.5408   7.2589   7.2589
     7.6104   7.6104

          k =-0.7622-0.3224 0.0000 ( 36511 PWs)   bands (ev):

   -44.1509 -44.1509 -22.2530 -22.2530 -22.2306 -22.2306 -22.0844 -22.0843
    -7.2429  -7.0728  -6.7793  -6.6683  -5.7340  -5.5633  -5.1568  -5.1220
    -4.4967  -4.4398  -0.2885   0.0290   0.1281   0.8778   0.9101   1.2902
     1.5028   1.6661   2.0939   2.1773   2.2090   2.2500   2.4721   2.8532
     3.0176   3.2005   3.3441   3.4339   3.4994   3.6205   3.6946   3.6987
     4.0156   4.5568   6.2360   6.5201   6.5823   6.8798   7.0223   7.1052
     7.3821   7.5667

          k =-0.7622-0.3224 0.1485 ( 36492 PWs)   bands (ev):

   -44.1509 -44.1509 -22.2530 -22.2530 -22.2306 -22.2306 -22.0844 -22.0843
    -7.2232  -7.1058  -6.7562  -6.6805  -5.7048  -5.5830  -5.1566  -5.1336
    -4.4869  -4.4471  -0.2512   0.0400   0.1495   0.7777   0.9096   1.2344
     1.5244   1.6087   2.0225   2.1068   2.1901   2.5617   2.6822   2.9262
     2.9640   3.0440   3.2430   3.3134   3.4751   3.5795   3.7806   3.8793
     4.0479   4.4723   6.0410   6.5003   6.7348   6.9173   7.0508   7.1278
     7.2299   7.6069

          k =-0.7622-0.3224-0.2971 ( 36508 PWs)   bands (ev):

   -44.1509 -44.1509 -22.2530 -22.2530 -22.2306 -22.2306 -22.0844 -22.0844
    -7.1705  -7.1705  -6.7136  -6.7136  -5.6393  -5.6393  -5.1506  -5.1506
    -4.4658  -4.4658  -0.1281  -0.1281   0.4465   0.4465   1.0543   1.0543
     1.5614   1.5614   2.0533   2.0533   2.4616   2.4616   2.8469   2.8469
     2.9846   2.9846   3.1953   3.1953   3.5897   3.5897   3.9209   3.9209
     4.1377   4.1377   6.3907   6.3907   6.5481   6.5481   7.1257   7.1257
     7.5320   7.5321

          k =-0.5081-0.2579 0.0000 ( 36480 PWs)   bands (ev):

   -44.1518 -44.1518 -22.2578 -22.2578 -22.2079 -22.2079 -22.0870 -22.0869
    -7.8273  -7.6614  -6.9182  -6.8070  -5.8346  -5.2297  -4.9896  -4.6260
    -4.5561  -4.4997  -0.0798   0.4087   0.7163   0.8692   1.1699   1.4152
     1.6445   1.7580   1.7634   2.0613   2.1403   2.4613   2.5882   3.3807
     3.4632   3.5308   3.5691   3.6961   3.7400   3.7702   4.0692   4.1530
     4.2874   4.8513   5.8952   6.2191   6.2685   6.7053   6.7824   6.9890
     7.4042   7.4861

          k =-0.5081-0.2579 0.1485 ( 36485 PWs)   bands (ev):

   -44.1518 -44.1518 -22.2578 -22.2578 -22.2079 -22.2079 -22.0870 -22.0869
    -7.8067  -7.6905  -6.8971  -6.8196  -5.7762  -5.3921  -4.8595  -4.6087
    -4.5964  -4.5011  -0.0195   0.3593   0.7752   0.8103   1.1416   1.2723
     1.5002   1.6493   1.9898   2.0626   2.3273   2.5399   2.8772   3.2888
     3.4388   3.5023   3.5266   3.6645   3.7010   3.7786   3.9578   4.1833
     4.2693   4.4931   6.2862   6.3013   6.4172   6.7057   6.8220   6.8804
     7.2427   7.4888

          k =-0.5081-0.2579-0.2971 ( 36478 PWs)   bands (ev):

   -44.1518 -44.1518 -22.2578 -22.2578 -22.2079 -22.2079 -22.0869 -22.0869
    -7.7527  -7.7527  -6.8543  -6.8543  -5.6147  -5.6147  -4.7113  -4.7113
    -4.5402  -4.5402   0.1549   0.1549   0.9391   0.9391   0.9745   0.9745
     1.5607   1.5607   2.0378   2.0378   2.6760   2.6760   3.1526   3.1526
     3.3673   3.3673   3.5762   3.5762   3.7126   3.7126   3.9661   3.9661
     4.3094   4.3094   6.4655   6.4655   6.6512   6.6512   6.8545   6.8545
     7.2729   7.2731

          k =-0.2541-0.1934 0.0000 ( 36410 PWs)   bands (ev):

   -44.1526 -44.1526 -22.2625 -22.2625 -22.1851 -22.1851 -22.0896 -22.0894
    -8.2029  -8.0317  -7.0669  -6.9284  -6.0002  -5.3538  -4.7612  -4.7075
    -4.6655  -3.9429   0.2921   0.7879   0.9273   1.0299   1.2637   1.4249
     1.4663   1.5809   1.7776   2.5709   2.6244   3.1727   3.3758   3.6735
     3.7332   3.7605   3.8918   3.9147   3.9196   4.2043   4.3000   4.3849
     4.4137   4.6637   6.0199   6.0304   6.2310   6.3837   6.4642   6.7838
     7.0244   7.1731

          k =-0.2541-0.1934 0.1485 ( 36427 PWs)   bands (ev):

   -44.1526 -44.1526 -22.2625 -22.2625 -22.1851 -22.1851 -22.0896 -22.0895
    -8.1815  -8.0614  -7.0404  -6.9438  -5.9384  -5.5138  -4.7444  -4.6830
    -4.5322  -4.0249   0.3604   0.7201   0.8953   1.0703   1.1319   1.2534
     1.5249   1.7217   2.0799   2.5712   2.6126   2.9381   3.4397   3.4853
     3.5371   3.7946   3.8681   3.9109   4.0343   4.2017   4.3877   4.4148
     4.6193   4.7770   5.9021   6.0237   6.1270   6.2860   6.3289   6.8263
     7.1734   7.2224

          k =-0.2541-0.1934-0.2971 ( 36422 PWs)   bands (ev):

   -44.1526 -44.1526 -22.2625 -22.2625 -22.1851 -22.1851 -22.0895 -22.0895
    -8.1255  -8.1255  -6.9867  -6.9867  -5.7618  -5.7618  -4.7133  -4.7133
    -4.2458  -4.2458   0.5402   0.5402   0.9223   0.9223   1.1631   1.1631
     1.7038   1.7038   2.4867   2.4867   2.6463   2.6463   3.2974   3.2974
     3.7195   3.7195   3.8542   3.8542   4.1611   4.1611   4.4041   4.4041
     4.9142   4.9142   5.7658   5.7658   6.1901   6.1901   6.5138   6.5138
     7.3386   7.3386

          k = 0.0000-0.1290 0.0000 ( 36417 PWs)   bands (ev):

   -44.1530 -44.1530 -22.2644 -22.2644 -22.1756 -22.1756 -22.0907 -22.0905
    -8.3318  -8.1577  -7.1312  -6.9779  -6.0540  -5.4011  -4.7870  -4.7241
    -4.6506  -3.7508   0.2080   0.8139   0.8846   1.1803   1.2536   1.5637
     1.7089   1.8014   2.2550   2.8292   2.9198   2.9676   3.2149   3.4451
     3.8652   3.9612   3.9800   4.0131   4.2865   4.3835   4.4521   4.6578
     4.7522   5.2116   5.6398   5.8988   5.9128   5.9556   6.1234   6.6973
     7.1303   7.2246

          k = 0.0000-0.1290 0.1485 ( 36419 PWs)   bands (ev):

   -44.1530 -44.1530 -22.2644 -22.2644 -22.1756 -22.1756 -22.0906 -22.0905
    -8.3101  -8.1879  -7.1018  -6.9948  -5.9928  -5.5632  -4.7760  -4.7300
    -4.4630  -3.8565   0.2881   0.8825   0.9294   0.9527   1.1478   1.7211
     1.7863   1.8505   2.0102   2.8449   2.9086   3.0029   3.3537   3.5317
     3.8301   3.9527   4.0074   4.0104   4.2962   4.3317   4.4524   4.6819
     4.7427   4.8119   5.8499   5.8802   5.9037   6.2558   6.2622   6.5650
     6.9353   7.0530

          k = 0.0000-0.1290-0.2971 ( 36464 PWs)   bands (ev):

   -44.1530 -44.1530 -22.2644 -22.2644 -22.1756 -22.1756 -22.0906 -22.0906
    -8.2531  -8.2531  -7.0421  -7.0421  -5.8155  -5.8155  -4.7527  -4.7527
    -4.1294  -4.1294   0.5236   0.5236   1.0153   1.0153   1.3574   1.3574
     1.7523   1.7523   2.5403   2.5403   2.8790   2.8790   3.6426   3.6426
     3.8706   3.8706   4.1345   4.1345   4.2005   4.2005   4.4452   4.4452
     4.7170   4.7170   5.8799   5.8799   6.2184   6.2184   6.5748   6.5748
     6.7054   6.7054

          k = 1.0162 0.0000 0.0000 ( 36499 PWs)   bands (ev):

   -44.1505 -44.1505 -22.2510 -22.2510 -22.2400 -22.2400 -22.0833 -22.0833
    -6.7758  -6.7544  -6.3374  -6.3307  -6.3268  -6.3258  -5.1601  -5.1596
    -4.4296  -4.3990  -0.1791  -0.1417   0.1299   0.1600   0.9990   1.0339
     1.4822   1.6345   2.1950   2.3834   2.3948   2.4041   2.7479   2.8692
     2.8709   2.9146   3.1539   3.2243   3.2800   3.3066   3.4989   3.5774
     3.9663   4.2851   6.6869   6.7859   6.8220   6.8964   7.2108   7.2304
     7.2345   7.2347

          k = 1.0162 0.0000 0.1485 ( 36485 PWs)   bands (ev):

   -44.1505 -44.1505 -22.2510 -22.2510 -22.2400 -22.2400 -22.0833 -22.0833
    -6.7703  -6.7548  -6.3775  -6.3706  -6.2908  -6.2864  -5.1587  -5.1583
    -4.4272  -4.4056  -0.2640  -0.2506   0.3170   0.3209   1.0034   1.0210
     1.4726   1.5736   2.1004   2.1934   2.3388   2.3904   2.6125   2.6904
     2.9107   3.0391   3.1214   3.2018   3.4900   3.5090   3.6541   3.6580
     4.0816   4.3039   6.3237   6.3693   6.5945   6.6833   7.2479   7.2493
     7.4968   7.5114

          k = 1.0162 0.0000-0.2971 ( 36514 PWs)   bands (ev):

   -44.1505 -44.1505 -22.2510 -22.2510 -22.2400 -22.2400 -22.0833 -22.0833
    -6.7599  -6.7599  -6.3931  -6.3931  -6.2720  -6.2720  -5.1571  -5.1571
    -4.4184  -4.4184  -0.3172  -0.3172   0.4808   0.4808   0.9832   0.9832
     1.5026   1.5026   1.9743   1.9743   2.3290   2.3290   2.7182   2.7182
     2.8524   2.8524   3.1940   3.1940   3.6263   3.6263   3.7671   3.7671
     4.3174   4.3174   5.9975   5.9975   6.5399   6.5399   7.2596   7.2596
     7.6109   7.6109

          k = 1.2703 0.0645 0.0000 ( 36468 PWs)   bands (ev):

   -44.1509 -44.1509 -22.2530 -22.2530 -22.2306 -22.2306 -22.0844 -22.0843
    -7.2383  -7.0720  -6.7828  -6.6702  -5.7334  -5.5651  -5.1580  -5.1217
    -4.5014  -4.4345  -0.2965   0.0317   0.1191   0.8582   0.9192   1.2803
     1.5034   1.7186   2.1655   2.1992   2.2252   2.2290   2.4131   2.8837
     3.0187   3.1943   3.3714   3.4206   3.5083   3.5726   3.6283   3.6770
     4.1146   4.5215   6.2383   6.5313   6.5952   6.8216   7.0515   7.1729
     7.3508   7.5445

          k = 1.2703 0.0645 0.1485 ( 36490 PWs)   bands (ev):

   -44.1509 -44.1509 -22.2530 -22.2530 -22.2306 -22.2306 -22.0844 -22.0843
    -7.2190  -7.1041  -6.7600  -6.6830  -5.7043  -5.5841  -5.1576  -5.1337
    -4.4902  -4.4434  -0.2591   0.0329   0.1518   0.7871   0.8910   1.2233
     1.5335   1.6255   2.0391   2.1559   2.2271   2.5649   2.6348   2.9490
     2.9619   3.0763   3.2296   3.2793   3.4855   3.5335   3.7752   3.8405
     4.1019   4.4769   6.0206   6.5316   6.7050   6.9137   7.0337   7.1902
     7.2311   7.5520

          k = 1.2703 0.0645-0.2971 ( 36480 PWs)   bands (ev):

   -44.1509 -44.1509 -22.2530 -22.2530 -22.2306 -22.2306 -22.0844 -22.0844
    -7.1673  -7.1673  -6.7172  -6.7172  -5.6392  -5.6392  -5.1514  -5.1514
    -4.4657  -4.4657  -0.1357  -0.1357   0.4521   0.4521   1.0411   1.0411
     1.5674   1.5674   2.0924   2.0924   2.4786   2.4786   2.8453   2.8453
     3.0028   3.0028   3.1528   3.1528   3.5826   3.5826   3.8871   3.8871
     4.1783   4.1783   6.3690   6.3690   6.5469   6.5469   7.1624   7.1624
     7.4778   7.4778

          k =-0.5081-0.3869 0.0000 ( 36463 PWs)   bands (ev):

   -44.1518 -44.1518 -22.2578 -22.2578 -22.2079 -22.2079 -22.0870 -22.0869
    -7.8232  -7.6606  -6.9188  -6.8076  -5.8418  -5.2314  -4.9952  -4.6325
    -4.5467  -4.5010  -0.0897   0.4250   0.7131   0.8474   1.1788   1.5405
     1.6553   1.7846   1.7963   2.0396   2.1619   2.4602   2.5742   3.2867
     3.4961   3.5375   3.5724   3.5754   3.7262   3.7630   4.0316   4.1495
     4.2746   4.8712   5.8846   6.1433   6.3339   6.8073   6.9021   6.9186
     7.3667   7.4486

          k =-0.5081-0.3869 0.1485 ( 36477 PWs)   bands (ev):

   -44.1518 -44.1518 -22.2578 -22.2578 -22.2079 -22.2079 -22.0870 -22.0869
    -7.8029  -7.6890  -6.8982  -6.8207  -5.7823  -5.3943  -4.8668  -4.6071
    -4.6000  -4.4959  -0.0269   0.3725   0.7704   0.7947   1.1403   1.2941
     1.6233   1.7227   1.9557   2.0332   2.3799   2.5339   2.8684   3.2164
     3.4134   3.5050   3.5208   3.5856   3.7009   3.7487   4.0023   4.1287
     4.2296   4.5205   6.2335   6.3395   6.3984   6.7784   6.8120   6.9647
     7.1880   7.4684

          k =-0.5081-0.3869-0.2971 ( 36492 PWs)   bands (ev):

   -44.1518 -44.1518 -22.2578 -22.2578 -22.2079 -22.2079 -22.0869 -22.0869
    -7.7498  -7.7498  -6.8559  -6.8559  -5.6184  -5.6184  -4.7183  -4.7183
    -4.5353  -4.5353   0.1547   0.1547   0.9436   0.9436   0.9659   0.9659
     1.6708   1.6708   2.0028   2.0028   2.7252   2.7252   3.0763   3.0763
     3.3603   3.3603   3.5520   3.5520   3.6826   3.6826   3.9873   3.9873
     4.2796   4.2796   6.4349   6.4349   6.7008   6.7008   6.8328   6.8328
     7.2946   7.2947

          k =-0.2541-0.3224 0.0000 ( 36485 PWs)   bands (ev):

   -44.1526 -44.1526 -22.2625 -22.2625 -22.1851 -22.1851 -22.0896 -22.0894
    -8.1989  -8.0308  -7.0628  -6.9276  -6.0162  -5.3599  -4.7851  -4.6988
    -4.6546  -3.9439   0.3172   0.7789   0.9356   1.1347   1.2984   1.4483
     1.5023   1.6596   1.8069   2.5063   2.5810   3.1943   3.4612   3.5756
     3.6270   3.6608   3.7613   3.9179   3.9461   4.1353   4.1820   4.3035
     4.3677   4.7170   6.0788   6.1130   6.2875   6.4074   6.4973   6.8567
     6.9461   7.0918

          k =-0.2541-0.3224 0.1485 ( 36445 PWs)   bands (ev):

   -44.1526 -44.1526 -22.2625 -22.2625 -22.1851 -22.1851 -22.0896 -22.0895
    -8.1778  -8.0599  -7.0374  -6.9431  -5.9524  -5.5206  -4.7609  -4.6758
    -4.5283  -4.0251   0.3860   0.7203   0.9002   1.1366   1.2113   1.3102
     1.5428   1.7461   2.1357   2.5092   2.5722   2.9588   3.4303   3.4874
     3.5955   3.6143   3.6667   3.9094   3.9745   4.1403   4.3111   4.3616
     4.6033   4.8164   5.9081   6.0265   6.1564   6.3492   6.4347   6.7941
     7.1523   7.2079

          k =-0.2541-0.3224-0.2971 ( 36442 PWs)   bands (ev):

   -44.1526 -44.1526 -22.2625 -22.2625 -22.1851 -22.1851 -22.0895 -22.0895
    -8.1227  -8.1227  -6.9855  -6.9855  -5.7717  -5.7717  -4.7178  -4.7178
    -4.2443  -4.2443   0.5606   0.5606   0.9331   0.9331   1.2525   1.2525
     1.7230   1.7230   2.4804   2.4804   2.6434   2.6434   3.2954   3.2954
     3.5933   3.5933   3.8147   3.8147   4.1011   4.1011   4.3421   4.3421
     4.9355   4.9355   5.7440   5.7440   6.2213   6.2213   6.5627   6.5627
     7.3300   7.3300

          k = 0.0000-0.2579 0.0000 ( 36445 PWs)   bands (ev):

   -44.1530 -44.1530 -22.2644 -22.2644 -22.1756 -22.1756 -22.0907 -22.0905
    -8.3282  -8.1569  -7.1255  -6.9769  -6.0715  -5.4086  -4.8059  -4.7127
    -4.6476  -3.7516   0.2374   0.8215   0.9924   1.2340   1.2800   1.6346
     1.7082   1.8005   2.2479   2.8467   2.9289   2.9763   3.2101   3.5522
     3.6203   3.6927   3.9332   3.9706   4.1601   4.3257   4.3842   4.6255
     4.7490   5.1818   5.6839   5.9838   5.9987   6.0229   6.1431   6.7366
     7.0862   7.1303

          k = 0.0000-0.2579 0.1485 ( 36452 PWs)   bands (ev):

   -44.1530 -44.1530 -22.2644 -22.2644 -22.1756 -22.1756 -22.0906 -22.0905
    -8.3068  -8.1866  -7.0974  -6.9936  -6.0084  -5.5713  -4.7914  -4.7215
    -4.4616  -3.8568   0.3188   0.9250   0.9570   1.0349   1.2064   1.7204
     1.7855   1.8617   2.0534   2.8611   2.9190   3.0152   3.3250   3.5668
     3.6831   3.7118   3.9136   3.9807   4.2081   4.2842   4.3341   4.6637
     4.7389   4.8070   5.9036   5.9396   5.9805   6.2718   6.2789   6.5941
     6.9384   6.9514

          k = 0.0000-0.2579-0.2971 ( 36454 PWs)   bands (ev):

   -44.1530 -44.1530 -22.2644 -22.2644 -22.1756 -22.1756 -22.0906 -22.0906
    -8.2506  -8.2506  -7.0400  -7.0400  -5.8270  -5.8270  -4.7563  -4.7563
    -4.1287  -4.1287   0.5587   0.5587   1.0945   1.0945   1.3703   1.3703
     1.7516   1.7516   2.5728   2.5728   2.8923   2.8923   3.5450   3.5450
     3.7822   3.7822   4.0951   4.0951   4.1122   4.1122   4.3807   4.3807
     4.7099   4.7099   5.9369   5.9369   6.2548   6.2548   6.5840   6.5840
     6.6610   6.6611

          k = 1.5243 0.0000 0.0000 ( 36439 PWs)   bands (ev):

   -44.1518 -44.1518 -22.2578 -22.2578 -22.2079 -22.2079 -22.0870 -22.0869
    -7.8215  -7.6602  -6.9192  -6.8076  -5.8448  -5.2321  -4.9975  -4.6346
    -4.5434  -4.5015  -0.0938   0.4316   0.7116   0.8391   1.1825   1.6090
     1.6736   1.7626   1.8104   2.0285   2.1946   2.4383   2.5675   3.2545
     3.5098   3.5144   3.5516   3.5784   3.7049   3.7804   3.9753   4.1787
     4.2688   4.8785   5.8807   6.1089   6.3655   6.8536   6.8663   6.9847
     7.3337   7.4971

          k = 1.5243 0.0000 0.1485 ( 36476 PWs)   bands (ev):

   -44.1518 -44.1518 -22.2578 -22.2578 -22.2079 -22.2079 -22.0870 -22.0869
    -7.8013  -7.6883  -6.8988  -6.8210  -5.7848  -5.3951  -4.8698  -4.6061
    -4.6016  -4.4939  -0.0300   0.3779   0.7748   0.7818   1.1409   1.3023
     1.7181   1.7278   1.9373   2.0083   2.4472   2.4840   2.8620   3.1936
     3.3796   3.5071   3.5265   3.5692   3.7055   3.7334   3.9898   4.1401
     4.2054   4.5315   6.2074   6.3568   6.3945   6.7550   6.8427   7.0390
     7.1452   7.4961

          k = 1.5243 0.0000-0.2971 ( 36508 PWs)   bands (ev):

   -44.1518 -44.1518 -22.2578 -22.2578 -22.2079 -22.2079 -22.0869 -22.0869
    -7.7487  -7.7487  -6.8566  -6.8566  -5.6199  -5.6199  -4.7211  -4.7211
    -4.5334  -4.5334   0.1546   0.1546   0.9466   0.9466   0.9613   0.9613
     1.7312   1.7312   1.9749   1.9749   2.7567   2.7567   3.0256   3.0256
     3.3609   3.3609   3.5419   3.5419   3.6751   3.6751   3.9909   3.9909
     4.2718   4.2718   6.4224   6.4224   6.7045   6.7045   6.8363   6.8363
     7.3143   7.3143

          k =-0.2541-0.4514 0.0000 ( 36444 PWs)   bands (ev):

   -44.1526 -44.1526 -22.2625 -22.2625 -22.1851 -22.1851 -22.0896 -22.0894
    -8.1961  -8.0302  -7.0603  -6.9265  -6.0277  -5.3642  -4.7992  -4.6915
    -4.6508  -3.9446   0.3301   0.7739   0.9405   1.2376   1.3103   1.4653
     1.5278   1.7394   1.8409   2.4377   2.5106   3.2483   3.4257   3.4668
     3.5221   3.6481   3.8303   3.9210   3.9622   4.0211   4.0997   4.2432
     4.3543   4.7512   6.1053   6.1926   6.2871   6.4524   6.5207   6.8625
     6.9032   7.0519

          k =-0.2541-0.4514 0.1485 ( 36461 PWs)   bands (ev):

   -44.1526 -44.1526 -22.2625 -22.2625 -22.1851 -22.1851 -22.0896 -22.0895
    -8.1752  -8.0588  -7.0357  -6.9422  -5.9625  -5.5253  -4.7710  -4.6719
    -4.5259  -4.0252   0.3995   0.7204   0.9024   1.1676   1.2971   1.3614
     1.5634   1.7752   2.1936   2.4433   2.4974   2.9938   3.3648   3.4138
     3.5198   3.5633   3.7537   3.9046   3.9467   4.0159   4.2733   4.3391
     4.5952   4.8417   5.9116   6.0237   6.1885   6.3735   6.5016   6.7491
     7.1593   7.1964

          k =-0.2541-0.4514-0.2971 ( 36490 PWs)   bands (ev):

   -44.1526 -44.1526 -22.2625 -22.2625 -22.1851 -22.1851 -22.0895 -22.0895
    -8.1208  -8.1208  -6.9847  -6.9847  -5.7787  -5.7787  -4.7209  -4.7209
    -4.2431  -4.2431   0.5716   0.5716   0.9384   0.9384   1.3340   1.3340
     1.7447   1.7447   2.4542   2.4542   2.6433   2.6433   3.2734   3.2734
     3.4699   3.4699   3.8820   3.8820   4.0205   4.0205   4.3096   4.3096
     4.9495   4.9495   5.7314   5.7314   6.2234   6.2234   6.5965   6.5965
     7.3285   7.3285

          k = 0.0000-0.3869 0.0000 ( 36477 PWs)   bands (ev):

   -44.1530 -44.1530 -22.2644 -22.2644 -22.1756 -22.1756 -22.0907 -22.0905
    -8.3246  -8.1561  -7.1204  -6.9751  -6.0895  -5.4160  -4.8223  -4.6998
    -4.6485  -3.7524   0.2582   0.8307   1.1367   1.2977   1.3042   1.7076
     1.7103   1.7996   2.2422   2.8655   2.9375   2.9955   3.1704   3.3042
     3.4671   3.7083   3.9048   3.9869   4.0244   4.1562   4.3849   4.5933
     4.7459   5.1617   5.7280   6.0428   6.0523   6.1058   6.1631   6.7543
     6.9545   7.1302

          k = 0.0000-0.3869 0.1485 ( 36452 PWs)   bands (ev):

   -44.1530 -44.1530 -22.2644 -22.2644 -22.1756 -22.1756 -22.0906 -22.0905
    -8.3034  -8.1852  -7.0934  -6.9919  -6.0243  -5.5794  -4.8040  -4.7156
    -4.4603  -3.8570   0.3403   0.9522   0.9728   1.1809   1.2782   1.7198
     1.7846   1.8735   2.1020   2.8785   2.9291   3.0169   3.2293   3.3394
     3.4867   3.7946   3.9437   3.9535   4.0852   4.1746   4.2710   4.6468
     4.7353   4.8057   5.9590   5.9883   6.0248   6.2881   6.2913   6.5986
     6.8554   6.9416

          k = 0.0000-0.3869-0.2971 ( 36454 PWs)   bands (ev):

   -44.1530 -44.1530 -22.2644 -22.2644 -22.1756 -22.1756 -22.0906 -22.0906
    -8.2481  -8.2481  -7.0378  -7.0378  -5.8384  -5.8384  -4.7599  -4.7599
    -4.1279  -4.1279   0.5838   0.5838   1.2011   1.2011   1.3886   1.3886
     1.7508   1.7508   2.6084   2.6084   2.9061   2.9061   3.2817   3.2817
     3.8350   3.8350   4.0220   4.0220   4.0893   4.0893   4.3188   4.3188
     4.7033   4.7033   5.9674   5.9674   6.2930   6.2930   6.5935   6.5935
     6.6044   6.6044

          k =-2.0325 0.0000 0.0000 ( 36452 PWs)   bands (ev):

   -44.1530 -44.1530 -22.2644 -22.2644 -22.1756 -22.1756 -22.0907 -22.0905
    -8.3231  -8.1558  -7.1185  -6.9740  -6.0971  -5.4190  -4.8286  -4.6934
    -4.6504  -3.7527   0.2643   0.8349   1.2615   1.2687   1.3136   1.7074
     1.7549   1.7992   2.2403   2.8739   2.9408   3.0072   3.0983   3.1881
     3.4058   3.8727   3.8929   3.8980   3.9939   4.0549   4.3852   4.5800
     4.7446   5.1547   5.7462   6.0642   6.0666   6.1496   6.1714   6.7406
     6.9116   7.1301

          k =-2.0325 0.0000 0.1485 ( 36456 PWs)   bands (ev):

   -44.1530 -44.1530 -22.2644 -22.2644 -22.1756 -22.1756 -22.0906 -22.0905
    -8.3020  -8.1846  -7.0919  -6.9910  -6.0309  -5.5827  -4.8089  -4.7135
    -4.4598  -3.8570   0.3466   0.9656   0.9774   1.2734   1.2946   1.7195
     1.7843   1.8788   2.1277   2.8861   2.9331   2.9982   3.1194   3.2721
     3.4412   3.9059   3.9421   3.9561   4.0240   4.0619   4.2651   4.6401
     4.7339   4.8053   5.9809   6.0127   6.0351   6.2949   6.2961   6.5856
     6.8232   6.9428

          k =-2.0325 0.0000-0.2971 ( 36460 PWs)   bands (ev):

   -44.1530 -44.1530 -22.2644 -22.2644 -22.1756 -22.1756 -22.0906 -22.0906
    -8.2471  -8.2471  -7.0368  -7.0368  -5.8431  -5.8431  -4.7615  -4.7615
    -4.1275  -4.1275   0.5915   0.5915   1.2533   1.2533   1.4005   1.4005
     1.7506   1.7506   2.6248   2.6248   2.9119   2.9119   3.1576   3.1576
     3.8825   3.8825   3.9755   3.9755   4.0796   4.0796   4.2955   4.2955
     4.7007   4.7007   5.9753   5.9753   6.3096   6.3096   6.5776   6.5776
     6.5974   6.5974

     the Fermi energy is     5.4344 ev

!    total energy              =   -4240.92812335 Ry

     total all-electron energy =   -150287.621818 Ry
     estimated scf accuracy    <          2.6E-13 Ry
     smearing contrib. (-TS)   =       0.00000000 Ry
     internal energy E=F+TS    =   -4240.92812335 Ry

     The total energy is F=E-TS. E is the sum of the following terms:
     one-electron contribution =    -168.81791925 Ry
     hartree contribution      =     117.85561777 Ry
     xc contribution           =    -201.63151371 Ry
     ewald contribution        =    -220.79058809 Ry
     one-center paw contrib.   =   -3767.54372007 Ry

     convergence has been achieved in  17 iterations

     Forces acting on atoms (cartesian axes, Ry/au):

     atom    1 type  1   force =     0.00000000    0.02010586    0.00000000
     atom    2 type  1   force =     0.00000000   -0.02010586    0.00000000
     atom    3 type  2   force =     0.00000000   -0.00023763    0.00000000
     atom    4 type  2   force =     0.00000000    0.00023763    0.00000000
     atom    5 type  2   force =     0.00000000   -0.00467205   -0.00303081
     atom    6 type  2   force =     0.00000000    0.00467205    0.00303081
     atom    7 type  2   force =    -0.00000000   -0.00467205    0.00303081
     atom    8 type  2   force =     0.00000000    0.00467205   -0.00303081
     atom    9 type  2   force =     0.00000000   -0.03733890   -0.04363041
     atom   10 type  2   force =     0.00000000    0.03733890    0.04363041
     atom   11 type  2   force =     0.00000000   -0.03733890    0.04363041
     atom   12 type  2   force =     0.00000000    0.03733890   -0.04363041

     Total force =     0.118844     Total SCF correction =     0.000001


     Computing stress (Cartesian axis) and pressure

          total   stress  (Ry/bohr**3)                   (kbar)     P=       10.37
   0.00008287   0.00000000   0.00000000           12.19        0.00        0.00
   0.00000000   0.00003727   0.00000000            0.00        5.48        0.00
   0.00000000   0.00000000   0.00009143            0.00        0.00       13.45

 
     init_run     :     18.54s CPU     18.99s WALL (       1 calls)
     electrons    :    897.12s CPU    907.31s WALL (       1 calls)
     forces       :      6.46s CPU      6.67s WALL (       1 calls)
     stress       :     41.38s CPU     41.97s WALL (       1 calls)

     Called by init_run:
     wfcinit      :     14.26s CPU     14.42s WALL (       1 calls)
     potinit      :      1.35s CPU      1.41s WALL (       1 calls)
     hinit0       :      1.65s CPU      1.70s WALL (       1 calls)

     Called by electrons:
     c_bands      :    744.09s CPU    747.22s WALL (      18 calls)
     sum_band     :    128.96s CPU    132.80s WALL (      18 calls)
     v_of_rho     :      5.28s CPU      5.54s WALL (      18 calls)
     newd         :     13.34s CPU     16.45s WALL (      18 calls)
     PAW_pot      :      5.58s CPU      5.59s WALL (      18 calls)
     mix_rho      :      0.79s CPU      0.82s WALL (      18 calls)

     Called by c_bands:
     init_us_2    :     10.95s CPU     11.00s WALL (    2457 calls)
     cegterg      :    671.11s CPU    673.74s WALL (    1134 calls)

     Called by *egterg:
     cdiaghg      :     26.00s CPU     26.07s WALL (    7779 calls)
     h_psi        :    514.91s CPU    517.39s WALL (    7905 calls)
     s_psi        :     41.66s CPU     41.72s WALL (    7905 calls)
     g_psi        :      1.83s CPU      1.85s WALL (    6708 calls)

     Called by h_psi:
     h_psi:calbec :     36.42s CPU     36.49s WALL (    7905 calls)
     vloc_psi     :    434.22s CPU    436.48s WALL (    7905 calls)
     add_vuspsi   :     41.47s CPU     41.55s WALL (    7905 calls)

     General routines
     calbec       :     48.74s CPU     48.85s WALL (    9354 calls)
     fft          :      3.21s CPU      3.32s WALL (     258 calls)
     ffts         :      0.08s CPU      0.08s WALL (      36 calls)
     fftw         :    409.81s CPU    411.93s WALL (  406872 calls)
     interpolate  :      0.31s CPU      0.31s WALL (      18 calls)
 
     Parallel routines
 
     PWSCF        :  16m 3.76s CPU  16m15.26s WALL

 
   This run was terminated on:  15:32:10  19Nov2021            

=------------------------------------------------------------------------------=
   JOB DONE.
=------------------------------------------------------------------------------=
