
     Program PWSCF v.6.8 starts on 19Nov2021 at 15:16:56 

     This program is part of the open-source Quantum ESPRESSO suite
     for quantum simulation of materials; please cite
         "P. Giannozzi et al., J. Phys.:Condens. Matter 21 395502 (2009);
         "P. Giannozzi et al., J. Phys.:Condens. Matter 29 465901 (2017);
         "P. Giannozzi et al., J. Chem. Phys. 152 154105 (2020);
          URL http://www.quantum-espresso.org", 
     in publications or presentations arising from this work. More details at
     http://www.quantum-espresso.org/quote

     Parallel version (MPI), running on    10 processors

     MPI processes distributed on     1 nodes
     R & G space division:  proc/nbgrp/npool/nimage =      10
     70599 MiB available memory on the printing compute node when the environment starts
 
     Waiting for input...
     Reading input from standard input

     Current dimensions of program PWSCF are:
     Max number of different atomic species (ntypx) = 10
     Max number of k-points (npk) =  40000
     Max angular momentum in pseudopotentials (lmaxx) =  4
     file Zr.pbe-spn-kjpaw_psl.1.0.0.UPF: wavefunction(s)  4S 4P renormalized
     file Te.pbe-n-kjpaw_psl.1.0.0.UPF: wavefunction(s)  5S 5P renormalized
     Message from routine setup:
     using ibrav=0 with symmetry is DISCOURAGED, use correct ibrav instead

     Subspace diagonalization in iterative solution of the eigenvalue problem:
     a serial algorithm will be used

 
     Parallelization info
     --------------------
     sticks:   dense  smooth     PW     G-vecs:    dense   smooth      PW
     Min         734     293     87               115340    29174    4753
     Max         735     295     88               115345    29176    4760
     Sum        7345    2937    873              1153415   291749   47557
 
     Using Slab Decomposition
 


     bravais-lattice index     =            0
     lattice parameter (alat)  =      15.5510  a.u.
     unit-cell volume          =    3018.5011 (a.u.)^3
     number of atoms/cell      =           12
     number of atomic types    =            2
     number of electrons       =        84.00
     number of Kohn-Sham states=           50
     kinetic-energy cutoff     =      80.0000  Ry
     charge density cutoff     =     800.0000  Ry
     scf convergence threshold =      1.0E-10
     mixing beta               =       0.7000
     number of iterations used =            8  plain     mixing
     Exchange-correlation= SLA  PW   PBX  PBC
                           (   1   4   3   4   0   0   0)

     celldm(1)=  15.551040  celldm(2)=   0.000000  celldm(3)=   0.000000
     celldm(4)=   0.000000  celldm(5)=   0.000000  celldm(6)=   0.000000

     crystal axes: (cart. coord. in units of alat)
               a(1) = (   0.246007  -0.969268   0.000000 )  
               a(2) = (   0.246007   0.969268   0.000000 )  
               a(3) = (   0.000000   0.000000   1.683031 )  

     reciprocal axes: (cart. coord. in units 2 pi/alat)
               b(1) = (  2.032465 -0.515853  0.000000 )  
               b(2) = (  2.032465  0.515853  0.000000 )  
               b(3) = (  0.000000  0.000000  0.594166 )  


     PseudoPot. # 1 for Zr read from file:
     pseudo/Zr.pbe-spn-kjpaw_psl.1.0.0.UPF
     MD5 check sum: 02112c41713a0468aff2bb39ef194e36
     Pseudo is Projector augmented-wave + core cor, Zval = 12.0
     Generated using &quot;atomic&quot; code by A. Dal Corso  v.6.2.2
     Shape of augmentation charge: PSQ
     Using radial grid of 1225 points,  6 beta functions with: 
                l(1) =   0
                l(2) =   0
                l(3) =   1
                l(4) =   1
                l(5) =   2
                l(6) =   2
     Q(r) pseudized with 0 coefficients 


     PseudoPot. # 2 for Te read from file:
     pseudo/Te.pbe-n-kjpaw_psl.1.0.0.UPF
     MD5 check sum: 66247bff2bd9dbf220fbb0bf5ab56e9d
     Pseudo is Projector augmented-wave + core cor, Zval =  6.0
     Generated using &quot;atomic&quot; code by A. Dal Corso  v.6.3
     Shape of augmentation charge: PSQ
     Using radial grid of 1245 points,  6 beta functions with: 
                l(1) =   0
                l(2) =   0
                l(3) =   1
                l(4) =   1
                l(5) =   2
                l(6) =   2
     Q(r) pseudized with 0 coefficients 


     atomic species   valence    mass     pseudopotential
        Zr            12.00    91.22000     Zr( 1.00)
        Te             6.00   127.60000     Te( 1.00)

      8 Sym. Ops., with inversion, found ( 4 have fractional translation)



   Cartesian axes

     site n.     atom                  positions (alat units)
         1           Zr  tau(   1) = (   0.0000000   0.5965733   0.4207578  )
         2           Zr  tau(   2) = (   0.2460067   0.3726948   1.2622733  )
         3           Te  tau(   3) = (   0.2460067   0.3340668   0.4207578  )
         4           Te  tau(   4) = (   0.0000000   0.6352013   1.2622733  )
         5           Te  tau(   5) = (   0.2460067   0.8139381   0.2548704  )
         6           Te  tau(   6) = (   0.0000000   0.1553300   1.4281606  )
         7           Te  tau(   7) = (   0.2460067   0.8139381   0.5866451  )
         8           Te  tau(   8) = (   0.0000000   0.1553300   1.0963860  )
         9           Te  tau(   9) = (   0.0000000   0.4307182   0.7459819  )
        10           Te  tau(  10) = (   0.2460067   0.5385499   0.9370492  )
        11           Te  tau(  11) = (   0.0000000   0.4307182   0.0955337  )
        12           Te  tau(  12) = (   0.2460067   0.5385499   1.5874974  )

     number of k points=    63  Methfessel-Paxton smearing, width (Ry)=  0.0030
                       cart. coord. in units 2pi/alat
        k(    1) = (   0.0000000   0.0000000   0.0000000), wk =   0.0078125
        k(    2) = (   0.0000000   0.0000000   0.1485415), wk =   0.0156250
        k(    3) = (   0.0000000   0.0000000  -0.2970830), wk =   0.0078125
        k(    4) = (   0.2540581   0.0644816   0.0000000), wk =   0.0312500
        k(    5) = (   0.2540581   0.0644816   0.1485415), wk =   0.0625000
        k(    6) = (   0.2540581   0.0644816  -0.2970830), wk =   0.0312500
        k(    7) = (   0.5081162   0.1289633   0.0000000), wk =   0.0312500
        k(    8) = (   0.5081162   0.1289633   0.1485415), wk =   0.0625000
        k(    9) = (   0.5081162   0.1289633  -0.2970830), wk =   0.0312500
        k(   10) = (   0.7621743   0.1934449   0.0000000), wk =   0.0312500
        k(   11) = (   0.7621743   0.1934449   0.1485415), wk =   0.0625000
        k(   12) = (   0.7621743   0.1934449  -0.2970830), wk =   0.0312500
        k(   13) = (  -1.0162324  -0.2579266   0.0000000), wk =   0.0156250
        k(   14) = (  -1.0162324  -0.2579266   0.1485415), wk =   0.0312500
        k(   15) = (  -1.0162324  -0.2579266  -0.2970830), wk =   0.0156250
        k(   16) = (   0.5081162   0.0000000   0.0000000), wk =   0.0156250
        k(   17) = (   0.5081162   0.0000000   0.1485415), wk =   0.0312500
        k(   18) = (   0.5081162   0.0000000  -0.2970830), wk =   0.0156250
        k(   19) = (   0.7621743   0.0644816   0.0000000), wk =   0.0312500
        k(   20) = (   0.7621743   0.0644816   0.1485415), wk =   0.0625000
        k(   21) = (   0.7621743   0.0644816  -0.2970830), wk =   0.0312500
        k(   22) = (   1.0162324   0.1289633   0.0000000), wk =   0.0312500
        k(   23) = (   1.0162324   0.1289633   0.1485415), wk =   0.0625000
        k(   24) = (   1.0162324   0.1289633  -0.2970830), wk =   0.0312500
        k(   25) = (  -0.7621743  -0.3224082   0.0000000), wk =   0.0312500
        k(   26) = (  -0.7621743  -0.3224082   0.1485415), wk =   0.0625000
        k(   27) = (  -0.7621743  -0.3224082  -0.2970830), wk =   0.0312500
        k(   28) = (  -0.5081162  -0.2579266   0.0000000), wk =   0.0312500
        k(   29) = (  -0.5081162  -0.2579266   0.1485415), wk =   0.0625000
        k(   30) = (  -0.5081162  -0.2579266  -0.2970830), wk =   0.0312500
        k(   31) = (  -0.2540581  -0.1934449   0.0000000), wk =   0.0312500
        k(   32) = (  -0.2540581  -0.1934449   0.1485415), wk =   0.0625000
        k(   33) = (  -0.2540581  -0.1934449  -0.2970830), wk =   0.0312500
        k(   34) = (   0.0000000  -0.1289633   0.0000000), wk =   0.0156250
        k(   35) = (   0.0000000  -0.1289633   0.1485415), wk =   0.0312500
        k(   36) = (   0.0000000  -0.1289633  -0.2970830), wk =   0.0156250
        k(   37) = (   1.0162324   0.0000000   0.0000000), wk =   0.0156250
        k(   38) = (   1.0162324   0.0000000   0.1485415), wk =   0.0312500
        k(   39) = (   1.0162324   0.0000000  -0.2970830), wk =   0.0156250
        k(   40) = (   1.2702905   0.0644816   0.0000000), wk =   0.0312500
        k(   41) = (   1.2702905   0.0644816   0.1485415), wk =   0.0625000
        k(   42) = (   1.2702905   0.0644816  -0.2970830), wk =   0.0312500
        k(   43) = (  -0.5081162  -0.3868899   0.0000000), wk =   0.0312500
        k(   44) = (  -0.5081162  -0.3868899   0.1485415), wk =   0.0625000
        k(   45) = (  -0.5081162  -0.3868899  -0.2970830), wk =   0.0312500
        k(   46) = (  -0.2540581  -0.3224082   0.0000000), wk =   0.0312500
        k(   47) = (  -0.2540581  -0.3224082   0.1485415), wk =   0.0625000
        k(   48) = (  -0.2540581  -0.3224082  -0.2970830), wk =   0.0312500
        k(   49) = (   0.0000000  -0.2579266   0.0000000), wk =   0.0156250
        k(   50) = (   0.0000000  -0.2579266   0.1485415), wk =   0.0312500
        k(   51) = (   0.0000000  -0.2579266  -0.2970830), wk =   0.0156250
        k(   52) = (   1.5243485   0.0000000   0.0000000), wk =   0.0156250
        k(   53) = (   1.5243485   0.0000000   0.1485415), wk =   0.0312500
        k(   54) = (   1.5243485   0.0000000  -0.2970830), wk =   0.0156250
        k(   55) = (  -0.2540581  -0.4513715   0.0000000), wk =   0.0312500
        k(   56) = (  -0.2540581  -0.4513715   0.1485415), wk =   0.0625000
        k(   57) = (  -0.2540581  -0.4513715  -0.2970830), wk =   0.0312500
        k(   58) = (   0.0000000  -0.3868899   0.0000000), wk =   0.0156250
        k(   59) = (   0.0000000  -0.3868899   0.1485415), wk =   0.0312500
        k(   60) = (   0.0000000  -0.3868899  -0.2970830), wk =   0.0156250
        k(   61) = (  -2.0324647   0.0000000   0.0000000), wk =   0.0078125
        k(   62) = (  -2.0324647   0.0000000   0.1485415), wk =   0.0156250
        k(   63) = (  -2.0324647   0.0000000  -0.2970830), wk =   0.0078125

     Dense  grid:  1153415 G-vectors     FFT dimensions: ( 144, 144, 240)

     Smooth grid:   291749 G-vectors     FFT dimensions: (  90,  90, 150)

     Estimated max dynamical RAM per process >     657.19 MB

     Estimated total dynamical RAM >       6.42 GB

     Initial potential from superposition of free atoms

     starting charge   83.99353, renormalised to   84.00000
     Starting wfcs are   66 randomized atomic wfcs
     Checking if some PAW data can be deallocated... 

     total cpu time spent up to now is       19.1 secs

     Self-consistent Calculation

     iteration #  1     ecut=    80.00 Ry     beta= 0.70
     Davidson diagonalization with overlap
     ethr =  1.00E-02,  avg # of iterations =  2.3

     Threshold (ethr) on eigenvalues was too large:
     Diagonalizing with lowered threshold

     Davidson diagonalization with overlap
     ethr =  5.04E-04,  avg # of iterations =  3.9

     total cpu time spent up to now is      102.6 secs

     total energy              =   -4240.65038484 Ry
     estimated scf accuracy    <       0.46622195 Ry

     iteration #  2     ecut=    80.00 Ry     beta= 0.70
     Davidson diagonalization with overlap
     ethr =  5.55E-04,  avg # of iterations =  8.3

     total cpu time spent up to now is      166.1 secs

     total energy              =   -4240.53299691 Ry
     estimated scf accuracy    <       2.09602931 Ry

     iteration #  3     ecut=    80.00 Ry     beta= 0.70
     Davidson diagonalization with overlap
     ethr =  5.55E-04,  avg # of iterations =  5.4

     total cpu time spent up to now is      217.2 secs

     total energy              =   -4240.87804449 Ry
     estimated scf accuracy    <       0.00813767 Ry

     iteration #  4     ecut=    80.00 Ry     beta= 0.70
     Davidson diagonalization with overlap
     c_bands:  2 eigenvalues not converged
     c_bands:  1 eigenvalues not converged
     c_bands:  1 eigenvalues not converged
     c_bands:  1 eigenvalues not converged
     c_bands:  1 eigenvalues not converged
     c_bands:  1 eigenvalues not converged
     c_bands:  2 eigenvalues not converged
     c_bands:  2 eigenvalues not converged
     c_bands:  1 eigenvalues not converged
     c_bands:  1 eigenvalues not converged
     ethr =  9.69E-06,  avg # of iterations = 15.7

     total cpu time spent up to now is      311.1 secs

     total energy              =   -4240.88673453 Ry
     estimated scf accuracy    <       0.02890266 Ry

     iteration #  5     ecut=    80.00 Ry     beta= 0.70
     Davidson diagonalization with overlap
     ethr =  9.69E-06,  avg # of iterations =  6.3

     total cpu time spent up to now is      360.8 secs

     total energy              =   -4240.88831339 Ry
     estimated scf accuracy    <       0.00505776 Ry

     iteration #  6     ecut=    80.00 Ry     beta= 0.70
     Davidson diagonalization with overlap
     ethr =  6.02E-06,  avg # of iterations =  4.0

     total cpu time spent up to now is      404.0 secs

     total energy              =   -4240.88877839 Ry
     estimated scf accuracy    <       0.00083151 Ry

     iteration #  7     ecut=    80.00 Ry     beta= 0.70
     Davidson diagonalization with overlap
     ethr =  9.90E-07,  avg # of iterations =  8.0

     total cpu time spent up to now is      464.3 secs

     total energy              =   -4240.88915046 Ry
     estimated scf accuracy    <       0.00071029 Ry

     iteration #  8     ecut=    80.00 Ry     beta= 0.70
     Davidson diagonalization with overlap
     ethr =  8.46E-07,  avg # of iterations =  2.0

     total cpu time spent up to now is      500.9 secs

     total energy              =   -4240.88917124 Ry
     estimated scf accuracy    <       0.00010563 Ry

     iteration #  9     ecut=    80.00 Ry     beta= 0.70
     Davidson diagonalization with overlap
     ethr =  1.26E-07,  avg # of iterations =  6.1

     total cpu time spent up to now is      551.6 secs

     total energy              =   -4240.88920492 Ry
     estimated scf accuracy    <       0.00001154 Ry

     iteration # 10     ecut=    80.00 Ry     beta= 0.70
     Davidson diagonalization with overlap
     ethr =  1.37E-08,  avg # of iterations =  4.4

     total cpu time spent up to now is      594.5 secs

     total energy              =   -4240.88920752 Ry
     estimated scf accuracy    <       0.00000055 Ry

     iteration # 11     ecut=    80.00 Ry     beta= 0.70
     Davidson diagonalization with overlap
     ethr =  6.54E-10,  avg # of iterations =  8.3

     total cpu time spent up to now is      660.0 secs

     total energy              =   -4240.88920818 Ry
     estimated scf accuracy    <       0.00000030 Ry

     iteration # 12     ecut=    80.00 Ry     beta= 0.70
     Davidson diagonalization with overlap
     ethr =  3.56E-10,  avg # of iterations =  2.9

     total cpu time spent up to now is      700.0 secs

     total energy              =   -4240.88920821 Ry
     estimated scf accuracy    <       0.00000002 Ry

     iteration # 13     ecut=    80.00 Ry     beta= 0.70
     Davidson diagonalization with overlap
     ethr =  1.96E-11,  avg # of iterations =  8.6

     total cpu time spent up to now is      764.1 secs

     total energy              =   -4240.88920822 Ry
     estimated scf accuracy    <       0.00000002 Ry

     iteration # 14     ecut=    80.00 Ry     beta= 0.70
     Davidson diagonalization with overlap
     ethr =  1.96E-11,  avg # of iterations =  2.0

     total cpu time spent up to now is      801.1 secs

     total energy              =   -4240.88920822 Ry
     estimated scf accuracy    <          3.1E-09 Ry

     iteration # 15     ecut=    80.00 Ry     beta= 0.70
     Davidson diagonalization with overlap
     ethr =  3.70E-12,  avg # of iterations =  6.2

     total cpu time spent up to now is      851.1 secs

     total energy              =   -4240.88920823 Ry
     estimated scf accuracy    <          6.0E-10 Ry

     iteration # 16     ecut=    80.00 Ry     beta= 0.70
     Davidson diagonalization with overlap
     ethr =  7.10E-13,  avg # of iterations =  2.1

     total cpu time spent up to now is      888.7 secs

     total energy              =   -4240.88920823 Ry
     estimated scf accuracy    <          2.0E-10 Ry

     iteration # 17     ecut=    80.00 Ry     beta= 0.70
     Davidson diagonalization with overlap
     ethr =  2.36E-13,  avg # of iterations =  6.2

     total cpu time spent up to now is      936.3 secs

     End of self-consistent calculation

          k = 0.0000 0.0000 0.0000 ( 36359 PWs)   bands (ev):

   -44.1700 -44.1699 -22.2740 -22.2740 -22.1864 -22.1864 -22.1118 -22.1116
    -8.6645  -8.5436  -7.1425  -7.0245  -5.9219  -5.3743  -4.7454  -4.6968
    -4.4848  -3.6868   0.1070   0.8772   0.8808   1.1084   1.1899   1.2954
     1.3421   1.5129   2.2658   2.8555   2.9120   2.9229   3.1036   3.4741
     3.9812   4.0497   4.1575   4.1755   4.3348   4.4523   4.6040   4.6162
     4.8010   4.9774   5.6008   5.7551   5.8166   5.9969   6.2722   6.5140
     7.2326   7.2411

          k = 0.0000 0.0000 0.1485 ( 36415 PWs)   bands (ev):

   -44.1700 -44.1700 -22.2740 -22.2740 -22.1864 -22.1864 -22.1118 -22.1117
    -8.6484  -8.5632  -7.1219  -7.0388  -5.8678  -5.5007  -4.7343  -4.7028
    -4.3311  -3.7849   0.1878   0.7775   0.9271   1.0049   1.1510   1.3019
     1.3350   1.8169   1.9782   2.8662   2.9068   2.9138   3.3113   3.5470
     3.8867   4.0892   4.1365   4.1735   4.3512   4.4155   4.5411   4.6771
     4.7098   4.7866   5.7548   5.8099   5.8121   6.2041   6.3860   6.4090
     7.0257   7.0389

          k = 0.0000 0.0000-0.2971 ( 36410 PWs)   bands (ev):

   -44.1700 -44.1700 -22.2740 -22.2740 -22.1864 -22.1864 -22.1117 -22.1117
    -8.6075  -8.6075  -7.0773  -7.0773  -5.7134  -5.7134  -4.7175  -4.7175
    -4.0357  -4.0357   0.4220   0.4220   1.0188   1.0188   1.3181   1.3181
     1.3879   1.3879   2.4552   2.4552   2.8908   2.8908   3.6893   3.6893
     3.8980   3.8980   4.2000   4.2000   4.2515   4.2515   4.5474   4.5474
     4.7447   4.7447   5.7920   5.7920   6.1248   6.1248   6.6249   6.6249
     6.6745   6.6745

          k = 0.2541 0.0645 0.0000 ( 36396 PWs)   bands (ev):

   -44.1696 -44.1696 -22.2721 -22.2721 -22.1958 -22.1958 -22.1108 -22.1106
    -8.5315  -8.4116  -7.0814  -6.9740  -5.8673  -5.3258  -4.7007  -4.6507
    -4.5783  -3.9111   0.1654   0.4516   0.9441   0.9789   1.0024   1.2752
     1.3287   1.5688   1.7522   2.6181   2.6569   3.0985   3.3971   3.6794
     3.7533   3.8277   3.9332   3.9848   4.1232   4.3270   4.3296   4.4663
     4.5644   4.6850   5.9883   6.0380   6.0829   6.1489   6.3158   6.8414
     7.0873   7.2743

          k = 0.2541 0.0645 0.1485 ( 36423 PWs)   bands (ev):

   -44.1696 -44.1696 -22.2721 -22.2721 -22.1958 -22.1958 -22.1108 -22.1107
    -8.5155  -8.4310  -7.0627  -6.9871  -5.8134  -5.4514  -4.6922  -4.6571
    -4.4380  -3.9858   0.2309   0.4413   0.7538   0.9550   1.0387   1.1975
     1.3485   1.7203   1.9700   2.6215   2.6424   2.8936   3.4520   3.4981
     3.5291   3.9085   3.9999   4.0874   4.1012   4.2807   4.4770   4.5604
     4.5885   4.7659   5.9027   5.9191   6.1002   6.1510   6.2049   6.8934
     7.1993   7.2298

          k = 0.2541 0.0645-0.2971 ( 36436 PWs)   bands (ev):

   -44.1696 -44.1696 -22.2721 -22.2721 -22.1958 -22.1958 -22.1107 -22.1107
    -8.4750  -8.4750  -7.0221  -7.0221  -5.6608  -5.6608  -4.6745  -4.6745
    -4.1858  -4.1858   0.3757   0.3757   0.7128   0.7128   1.1349   1.1349
     1.5875   1.5875   2.4543   2.4543   2.6473   2.6473   3.3345   3.3345
     3.7317   3.7317   4.0614   4.0614   4.2236   4.2236   4.5252   4.5252
     4.8451   4.8451   5.7411   5.7411   6.1006   6.1006   6.5324   6.5324
     7.3241   7.3241

          k = 0.5081 0.1290 0.0000 ( 36499 PWs)   bands (ev):

   -44.1687 -44.1687 -22.2674 -22.2674 -22.2184 -22.2184 -22.1083 -22.1082
    -8.1386  -8.0212  -6.9346  -6.8509  -5.7247  -5.2011  -4.9612  -4.5803
    -4.5475  -4.5331  -0.3452   0.1601   0.7003   0.7786   1.1746   1.3320
     1.5948   1.6416   1.7314   2.0645   2.1333   2.5235   2.6820   3.3881
     3.4643   3.5411   3.6213   3.7526   3.8000   3.8610   4.0582   4.2884
     4.3024   4.7345   6.0953   6.2652   6.3673   6.6153   6.6924   7.1524
     7.3621   7.5264

          k = 0.5081 0.1290 0.1485 ( 36476 PWs)   bands (ev):

   -44.1687 -44.1687 -22.2674 -22.2674 -22.2184 -22.2184 -22.1083 -22.1082
    -8.1230  -8.0403  -6.9201  -6.8612  -5.6744  -5.3399  -4.8474  -4.6074
    -4.5632  -4.5150  -0.2827   0.0864   0.6985   0.8395   1.1408   1.1809
     1.4139   1.6021   1.9977   2.0865   2.2425   2.5761   2.9311   3.2736
     3.4497   3.5066   3.5701   3.7409   3.8155   3.8247   3.9485   4.2878
     4.3365   4.4555   6.3287   6.4049   6.4817   6.6145   6.7840   7.0368
     7.2315   7.5213

          k = 0.5081 0.1290-0.2971 ( 36466 PWs)   bands (ev):

   -44.1687 -44.1687 -22.2674 -22.2674 -22.2184 -22.2184 -22.1082 -22.1082
    -8.0834  -8.0834  -6.8886  -6.8886  -5.5343  -5.5343  -4.7085  -4.7085
    -4.5306  -4.5306  -0.1110  -0.1110   0.8577   0.8577   0.9965   0.9965
     1.4953   1.4953   2.0584   2.0584   2.6048   2.6048   3.1846   3.1846
     3.3777   3.3777   3.6124   3.6124   3.7984   3.7984   4.0053   4.0053
     4.3810   4.3810   6.5460   6.5460   6.5772   6.5772   6.8993   6.8993
     7.3553   7.3553

          k = 0.7622 0.1934 0.0000 ( 36521 PWs)   bands (ev):

   -44.1679 -44.1679 -22.2627 -22.2627 -22.2408 -22.2408 -22.1058 -22.1057
    -7.5114  -7.3931  -6.7951  -6.7210  -5.7996  -5.6920  -5.1564  -5.0814
    -4.4499  -4.4101  -0.4342  -0.0735   0.0393   0.8515   0.8769   1.3264
     1.4956   1.5898   2.0239   2.0463   2.2223   2.3622   2.4972   2.8289
     3.0641   3.1547   3.3354   3.4119   3.5517   3.6409   3.7070   3.7805
     3.9561   4.6124   6.4380   6.5553   6.7143   7.0106   7.0229   7.0752
     7.4157   7.5977

          k = 0.7622 0.1934 0.1485 ( 36503 PWs)   bands (ev):

   -44.1679 -44.1679 -22.2627 -22.2627 -22.2408 -22.2408 -22.1058 -22.1057
    -7.4961  -7.4129  -6.7824  -6.7304  -5.7811  -5.7047  -5.1492  -5.0967
    -4.4432  -4.4152  -0.3961  -0.1426   0.1449   0.7190   0.9172   1.2606
     1.5023   1.5808   1.9563   2.0090   2.2394   2.5253   2.7305   2.9185
     2.9616   3.0299   3.2622   3.3104   3.5018   3.5850   3.8303   3.9300
     4.0220   4.4749   6.2804   6.5226   6.8279   6.9844   7.0717   7.1869
     7.2746   7.6670

          k = 0.7622 0.1934-0.2971 ( 36522 PWs)   bands (ev):

   -44.1679 -44.1679 -22.2627 -22.2627 -22.2408 -22.2408 -22.1058 -22.1058
    -7.4567  -7.4567  -6.7547  -6.7547  -5.7400  -5.7400  -5.1270  -5.1270
    -4.4284  -4.4284  -0.2843  -0.2843   0.4151   0.4151   1.0662   1.0662
     1.5495   1.5495   1.9603   1.9603   2.4896   2.4896   2.8606   2.8606
     2.9335   2.9335   3.2393   3.2393   3.5813   3.5813   3.9707   3.9707
     4.1422   4.1422   6.5619   6.5619   6.6143   6.6143   7.1111   7.1111
     7.6379   7.6380

          k =-1.0162-0.2579 0.0000 ( 36506 PWs)   bands (ev):

   -44.1675 -44.1675 -22.2607 -22.2607 -22.2501 -22.2501 -22.1047 -22.1047
    -6.8405  -6.8187  -6.5791  -6.5764  -6.5339  -6.5216  -5.0944  -5.0940
    -4.3905  -4.3579  -0.2440  -0.2281   0.0593   0.0798   1.0166   1.0222
     1.4667   1.6495   2.1770   2.3236   2.3628   2.3887   2.7570   2.8623
     2.9013   2.9620   3.1640   3.1865   3.2625   3.3208   3.4254   3.5672
     4.1070   4.3366   6.7656   6.8249   7.0122   7.0174   7.1599   7.2678
     7.2686   7.3375

          k =-1.0162-0.2579 0.1485 ( 36506 PWs)   bands (ev):

   -44.1675 -44.1675 -22.2607 -22.2607 -22.2501 -22.2501 -22.1047 -22.1047
    -6.8316  -6.8150  -6.6131  -6.6069  -6.5045  -6.4988  -5.0933  -5.0930
    -4.3874  -4.3643  -0.3267  -0.3216   0.2165   0.2252   1.0142   1.0195
     1.4561   1.5827   2.1061   2.2628   2.3046   2.3787   2.5999   2.6503
     2.9158   2.9835   3.1558   3.2447   3.4325   3.5110   3.5806   3.6464
     4.1996   4.3417   6.4947   6.5165   6.6606   6.7386   7.2810   7.2846
     7.5249   7.5891

          k =-1.0162-0.2579-0.2971 ( 36528 PWs)   bands (ev):

   -44.1675 -44.1675 -22.2607 -22.2607 -22.2501 -22.2501 -22.1047 -22.1047
    -6.8163  -6.8163  -6.6325  -6.6325  -6.4859  -6.4859  -5.0921  -5.0921
    -4.3775  -4.3775  -0.3806  -0.3806   0.3548   0.3548   0.9982   0.9982
     1.4920   1.4920   2.0477   2.0477   2.3184   2.3184   2.7202   2.7202
     2.7715   2.7715   3.2407   3.2407   3.5919   3.5919   3.7337   3.7337
     4.3492   4.3492   6.2018   6.2018   6.5951   6.5951   7.2908   7.2908
     7.6725   7.6725

          k = 0.5081 0.0000 0.0000 ( 36503 PWs)   bands (ev):

   -44.1687 -44.1687 -22.2674 -22.2674 -22.2184 -22.2184 -22.1083 -22.1082
    -8.1396  -8.0214  -6.9345  -6.8514  -5.7220  -5.2001  -4.9593  -4.5726
    -4.5469  -4.5418  -0.3415   0.1537   0.7136   0.7765   1.1716   1.2967
     1.5826   1.6377   1.7128   2.0708   2.1299   2.5138   2.6880   3.4000
     3.4546   3.5780   3.6341   3.7661   3.7844   3.9037   4.0346   4.2930
     4.3373   4.7193   6.1019   6.2402   6.3931   6.5799   6.6403   7.1944
     7.3638   7.5604

          k = 0.5081 0.0000 0.1485 ( 36453 PWs)   bands (ev):

   -44.1687 -44.1687 -22.2674 -22.2674 -22.2184 -22.2184 -22.1083 -22.1082
    -8.1239  -8.0407  -6.9200  -6.8615  -5.6721  -5.3387  -4.8450  -4.6070
    -4.5595  -4.5200  -0.2797   0.0825   0.7040   0.8406   1.1449   1.1704
     1.3761   1.5810   1.9979   2.1066   2.2192   2.5678   2.9361   3.2849
     3.4745   3.4983   3.5841   3.7570   3.8187   3.8827   3.8940   4.3058
     4.3725   4.4289   6.3135   6.4081   6.4993   6.5755   6.7491   7.0730
     7.2381   7.5457

          k = 0.5081 0.0000-0.2971 ( 36452 PWs)   bands (ev):

   -44.1687 -44.1687 -22.2674 -22.2674 -22.2184 -22.2184 -22.1082 -22.1082
    -8.0841  -8.0841  -6.8885  -6.8885  -5.5326  -5.5326  -4.7061  -4.7061
    -4.5322  -4.5322  -0.1105  -0.1105   0.8543   0.8543   1.0005   1.0005
     1.4636   1.4636   2.0642   2.0642   2.5921   2.5921   3.1976   3.1976
     3.3891   3.3891   3.6107   3.6107   3.8312   3.8312   3.9829   3.9829
     4.3972   4.3972   6.5361   6.5361   6.5646   6.5646   6.9153   6.9153
     7.3631   7.3631

          k = 0.7622 0.0645 0.0000 ( 36505 PWs)   bands (ev):

   -44.1679 -44.1679 -22.2627 -22.2627 -22.2408 -22.2408 -22.1058 -22.1057
    -7.5139  -7.3936  -6.7921  -6.7208  -5.8004  -5.6906  -5.1551  -5.0816
    -4.4377  -4.4229  -0.4268  -0.0660   0.0375   0.8435   0.9040   1.3389
     1.4741   1.5465   1.9903   2.0318   2.2552   2.3845   2.4502   2.8044
     3.0573   3.1869   3.3392   3.4252   3.6132   3.6539   3.7185   3.7783
     3.8695   4.6252   6.4370   6.5229   6.7485   6.9981   7.0327   7.0618
     7.4150   7.6565

          k = 0.7622 0.0645 0.1485 ( 36509 PWs)   bands (ev):

   -44.1679 -44.1679 -22.2627 -22.2627 -22.2408 -22.2408 -22.1058 -22.1057
    -7.4984  -7.4138  -6.7796  -6.7296  -5.7817  -5.7038  -5.1481  -5.0966
    -4.4345  -4.4242  -0.3887  -0.1355   0.1423   0.7108   0.9413   1.2709
     1.4793   1.5750   1.9231   1.9620   2.2545   2.5170   2.7350   2.9059
     2.9731   3.0217   3.2824   3.3197   3.5415   3.5734   3.8307   3.9629
     3.9698   4.4637   6.3057   6.4971   6.8493   6.9815   7.0510   7.2062
     7.2608   7.7115

          k = 0.7622 0.0645-0.2971 ( 36472 PWs)   bands (ev):

   -44.1679 -44.1679 -22.2627 -22.2627 -22.2408 -22.2408 -22.1058 -22.1058
    -7.4584  -7.4583  -6.7528  -6.7528  -5.7400  -5.7400  -5.1264  -5.1264
    -4.4285  -4.4285  -0.2771  -0.2771   0.4100   0.4100   1.0819   1.0819
     1.5463   1.5463   1.9090   1.9090   2.5035   2.5035   2.8615   2.8615
     2.9084   2.9084   3.2797   3.2797   3.5780   3.5780   4.0063   4.0063
     4.0929   4.0929   6.5870   6.5870   6.6156   6.6156   7.0839   7.0839
     7.6686   7.6686

          k = 1.0162 0.1290 0.0000 ( 36514 PWs)   bands (ev):

   -44.1675 -44.1675 -22.2607 -22.2607 -22.2501 -22.2501 -22.1047 -22.1047
    -6.8405  -6.8187  -6.5792  -6.5764  -6.5338  -6.5217  -5.0944  -5.0940
    -4.3905  -4.3579  -0.2495  -0.2225   0.0577   0.0815   1.0067   1.0327
     1.4747   1.6380   2.1725   2.3320   2.3727   2.3781   2.7408   2.8947
     2.9083   2.9522   3.1437   3.1857   3.2755   3.3052   3.4330   3.5715
     4.0874   4.3565   6.7576   6.8386   6.9853   7.0437   7.1862   7.2678
     7.2701   7.3116

          k = 1.0162 0.1290 0.1485 ( 36524 PWs)   bands (ev):

   -44.1675 -44.1675 -22.2607 -22.2607 -22.2501 -22.2501 -22.1047 -22.1047
    -6.8316  -6.8150  -6.6130  -6.6069  -6.5044  -6.4989  -5.0933  -5.0930
    -4.3874  -4.3643  -0.3293  -0.3192   0.2175   0.2246   1.0093   1.0243
     1.4634   1.5750   2.1081   2.2514   2.3076   2.3812   2.6060   2.6533
     2.8975   2.9992   3.1577   3.2402   3.4411   3.4853   3.5995   3.6470
     4.1798   4.3616   6.4928   6.5267   6.6565   6.7396   7.2820   7.2848
     7.5289   7.5829

          k = 1.0162 0.1290-0.2971 ( 36516 PWs)   bands (ev):

   -44.1675 -44.1675 -22.2607 -22.2607 -22.2501 -22.2501 -22.1047 -22.1047
    -6.8163  -6.8163  -6.6325  -6.6325  -6.4859  -6.4859  -5.0921  -5.0921
    -4.3775  -4.3775  -0.3807  -0.3807   0.3550   0.3550   0.9980   0.9980
     1.4932   1.4932   2.0470   2.0470   2.3170   2.3170   2.7049   2.7049
     2.7900   2.7900   3.2366   3.2366   3.5938   3.5938   3.7334   3.7334
     4.3502   4.3502   6.2054   6.2054   6.5939   6.5939   7.2913   7.2913
     7.6699   7.6699

          k =-0.7622-0.3224 0.0000 ( 36511 PWs)   bands (ev):

   -44.1679 -44.1679 -22.2627 -22.2627 -22.2408 -22.2408 -22.1058 -22.1057
    -7.5080  -7.3923  -6.7996  -6.7211  -5.7986  -5.6939  -5.1581  -5.0811
    -4.4593  -4.4001  -0.4445  -0.0832   0.0409   0.8455   0.8628   1.3113
     1.5011   1.6677   2.0688   2.0835   2.2134   2.3298   2.4899   2.8680
     3.0690   3.1487   3.3312   3.3908   3.5182   3.6046   3.6944   3.7190
     4.0983   4.5882   6.4392   6.6014   6.6813   6.9352   7.0588   7.1495
     7.4075   7.5189

          k =-0.7622-0.3224 0.1485 ( 36492 PWs)   bands (ev):

   -44.1679 -44.1679 -22.2627 -22.2627 -22.2408 -22.2408 -22.1058 -22.1057
    -7.4930  -7.4116  -6.7864  -6.7313  -5.7802  -5.7060  -5.1507  -5.0968
    -4.4498  -4.4082  -0.4064  -0.1521   0.1479   0.7302   0.8889   1.2455
     1.5224   1.5990   2.0071   2.0745   2.2298   2.5226   2.6982   2.9428
     2.9679   3.0464   3.2426   3.2879   3.4719   3.5718   3.8111   3.8812
     4.1162   4.4889   6.2480   6.5616   6.7917   6.9834   7.0896   7.1946
     7.2955   7.5866

          k =-0.7622-0.3224-0.2971 ( 36508 PWs)   bands (ev):

   -44.1679 -44.1679 -22.2627 -22.2627 -22.2408 -22.2408 -22.1058 -22.1058
    -7.4544  -7.4544  -6.7575  -6.7575  -5.7399  -5.7399  -5.1278  -5.1278
    -4.4283  -4.4283  -0.2942  -0.2942   0.4219   0.4219   1.0472   1.0472
     1.5559   1.5559   2.0263   2.0263   2.4777   2.4777   2.8603   2.8603
     2.9666   2.9666   3.1863   3.1863   3.5789   3.5789   3.9236   3.9236
     4.2092   4.2092   6.5306   6.5306   6.6108   6.6108   7.1538   7.1538
     7.5659   7.5660

          k =-0.5081-0.2579 0.0000 ( 36480 PWs)   bands (ev):

   -44.1687 -44.1687 -22.2674 -22.2674 -22.2184 -22.2184 -22.1083 -22.1082
    -8.1362  -8.0206  -6.9351  -6.8496  -5.7313  -5.2037  -4.9658  -4.5914
    -4.5487  -4.5194  -0.3541   0.1755   0.6769   0.7755   1.1821   1.4261
     1.6243   1.6497   1.7834   2.0510   2.1316   2.5433   2.6658   3.3374
     3.4836   3.4927   3.6080   3.6946   3.7764   3.8141   4.1245   4.2191
     4.2763   4.7668   6.0822   6.2874   6.3445   6.7049   6.8204   7.0572
     7.3553   7.4534

          k =-0.5081-0.2579 0.1485 ( 36485 PWs)   bands (ev):

   -44.1687 -44.1687 -22.2674 -22.2674 -22.2184 -22.2184 -22.1083 -22.1082
    -8.1209  -8.0393  -6.9206  -6.8604  -5.6802  -5.3427  -4.8532  -4.6086
    -4.5694  -4.5055  -0.2897   0.0955   0.6875   0.8339   1.1355   1.2056
     1.5106   1.6610   1.9844   2.0567   2.2847   2.5927   2.9173   3.2335
     3.3997   3.5249   3.5443   3.6927   3.7552   3.7895   4.0395   4.2273
     4.2911   4.4944   6.3606   6.3736   6.4666   6.7040   6.8725   6.9657
     7.2083   7.4701

          k =-0.5081-0.2579-0.2971 ( 36478 PWs)   bands (ev):

   -44.1687 -44.1687 -22.2674 -22.2674 -22.2184 -22.2184 -22.1082 -22.1082
    -8.0818  -8.0818  -6.8887  -6.8887  -5.5383  -5.5383  -4.7141  -4.7141
    -4.5270  -4.5270  -0.1124  -0.1124   0.8658   0.8658   0.9873   0.9873
     1.5801   1.5801   2.0380   2.0380   2.6425   2.6425   3.1343   3.1343
     3.3570   3.3570   3.6139   3.6139   3.7319   3.7319   4.0523   4.0523
     4.3455   4.3455   6.5177   6.5177   6.6538   6.6538   6.8639   6.8639
     7.3425   7.3425

          k =-0.2541-0.1934 0.0000 ( 36410 PWs)   bands (ev):

   -44.1696 -44.1696 -22.2721 -22.2721 -22.1958 -22.1958 -22.1108 -22.1106
    -8.5298  -8.4112  -7.0789  -6.9720  -5.8779  -5.3312  -4.7174  -4.6402
    -4.5748  -3.9116   0.1868   0.4459   0.9301   0.9828   1.0795   1.2998
     1.3588   1.6245   1.7613   2.5893   2.6461   3.1074   3.4427   3.6569
     3.7444   3.7639   3.9221   3.9238   3.9831   4.2397   4.2701   4.4374
     4.5113   4.7237   6.0360   6.0967   6.1141   6.2081   6.3478   6.8893
     7.0446   7.2135

          k =-0.2541-0.1934 0.1485 ( 36427 PWs)   bands (ev):

   -44.1696 -44.1696 -22.2721 -22.2721 -22.1958 -22.1958 -22.1108 -22.1107
    -8.5140  -8.4303  -7.0605  -6.9852  -5.8231  -5.4572  -4.7055  -4.6485
    -4.4366  -3.9859   0.2526   0.4389   0.7515   0.9836   1.0946   1.2205
     1.3753   1.7306   2.0082   2.5894   2.6366   2.9058   3.4558   3.4892
     3.5804   3.8452   3.9025   3.9201   4.0700   4.2416   4.4421   4.4933
     4.5664   4.8027   5.9074   5.9205   6.1543   6.2259   6.2711   6.8798
     7.1859   7.2060

          k =-0.2541-0.1934-0.2971 ( 36422 PWs)   bands (ev):

   -44.1696 -44.1696 -22.2721 -22.2721 -22.1958 -22.1958 -22.1107 -22.1107
    -8.4739  -8.4739  -7.0202  -7.0202  -5.6683  -5.6683  -4.6768  -4.6768
    -4.1852  -4.1852   0.3885   0.3885   0.7235   0.7235   1.1820   1.1820
     1.5997   1.5997   2.4651   2.4651   2.6449   2.6449   3.3315   3.3315
     3.7677   3.7677   3.8760   3.8760   4.2000   4.2000   4.4707   4.4707
     4.8609   4.8609   5.7318   5.7318   6.1761   6.1761   6.5376   6.5376
     7.3115   7.3115

          k = 0.0000-0.1290 0.0000 ( 36417 PWs)   bands (ev):

   -44.1700 -44.1700 -22.2740 -22.2740 -22.1864 -22.1864 -22.1118 -22.1116
    -8.6637  -8.5434  -7.1406  -7.0231  -5.9288  -5.3781  -4.7543  -4.6894
    -4.4850  -3.6869   0.1196   0.8819   0.9180   1.1206   1.2018   1.2952
     1.3419   1.5482   2.2616   2.8623   2.9106   2.9274   3.1050   3.5127
     3.9886   4.0187   4.0379   4.0382   4.2838   4.4528   4.5606   4.6019
     4.7993   4.9657   5.6169   5.8013   5.8715   6.0239   6.2806   6.5308
     7.1884   7.2413

          k = 0.0000-0.1290 0.1485 ( 36419 PWs)   bands (ev):

   -44.1700 -44.1700 -22.2740 -22.2740 -22.1864 -22.1864 -22.1118 -22.1117
    -8.6476  -8.5628  -7.1202  -7.0375  -5.8742  -5.5047  -4.7420  -4.6970
    -4.3312  -3.7849   0.2015   0.7975   0.9561   1.0091   1.1732   1.3017
     1.3347   1.8254   1.9920   2.8727   2.9125   2.9187   3.2988   3.5882
     3.9000   4.0021   4.0352   4.0778   4.3450   4.3575   4.5165   4.6699
     4.6923   4.7846   5.7863   5.8374   5.8643   6.2105   6.3931   6.4275
     6.9974   7.0273

          k = 0.0000-0.1290-0.2971 ( 36464 PWs)   bands (ev):

   -44.1700 -44.1700 -22.2740 -22.2740 -22.1864 -22.1864 -22.1117 -22.1117
    -8.6069  -8.6069  -7.0759  -7.0759  -5.7185  -5.7185  -4.7186  -4.7186
    -4.0356  -4.0356   0.4382   0.4382   1.0457   1.0457   1.3179   1.3179
     1.3911   1.3911   2.4691   2.4691   2.8965   2.8965   3.7009   3.7009
     3.8627   3.8627   4.1450   4.1450   4.1901   4.1901   4.5151   4.5151
     4.7415   4.7415   5.8354   5.8354   6.1409   6.1409   6.6063   6.6063
     6.6788   6.6788

          k = 1.0162 0.0000 0.0000 ( 36499 PWs)   bands (ev):

   -44.1675 -44.1675 -22.2607 -22.2607 -22.2501 -22.2501 -22.1047 -22.1047
    -6.8405  -6.8187  -6.5792  -6.5764  -6.5337  -6.5218  -5.0944  -5.0940
    -4.3905  -4.3579  -0.2533  -0.2186   0.0562   0.0830   1.0019   1.0381
     1.4839   1.6253   2.1685   2.3499   2.3580   2.3821   2.7294   2.9251
     2.9258   2.9326   3.1075   3.2186   3.2779   3.2784   3.4409   3.5759
     4.0705   4.3738   6.7515   6.8505   6.9731   7.0552   7.2472   7.2512
     7.2679   7.2714

          k = 1.0162 0.0000 0.1485 ( 36485 PWs)   bands (ev):

   -44.1675 -44.1675 -22.2607 -22.2607 -22.2501 -22.2501 -22.1047 -22.1047
    -6.8316  -6.8150  -6.6130  -6.6069  -6.5044  -6.4989  -5.0933  -5.0930
    -4.3874  -4.3643  -0.3311  -0.3177   0.2188   0.2237   1.0066   1.0269
     1.4720   1.5660   2.1103   2.2400   2.3131   2.3806   2.6163   2.6517
     2.8847   3.0102   3.1602   3.2347   3.4506   3.4671   3.6057   3.6519
     4.1636   4.3778   6.4926   6.5355   6.6525   6.7403   7.2830   7.2851
     7.5346   7.5750

          k = 1.0162 0.0000-0.2971 ( 36514 PWs)   bands (ev):

   -44.1675 -44.1675 -22.2607 -22.2607 -22.2501 -22.2501 -22.1047 -22.1047
    -6.8163  -6.8163  -6.6325  -6.6325  -6.4859  -6.4859  -5.0921  -5.0921
    -4.3775  -4.3775  -0.3808  -0.3808   0.3552   0.3552   0.9978   0.9978
     1.4945   1.4945   2.0462   2.0462   2.3156   2.3156   2.6943   2.6943
     2.8039   2.8039   3.2324   3.2324   3.5957   3.5957   3.7331   3.7331
     4.3512   4.3512   6.2090   6.2090   6.5927   6.5927   7.2918   7.2918
     7.6668   7.6668

          k = 1.2703 0.0645 0.0000 ( 36468 PWs)   bands (ev):

   -44.1679 -44.1679 -22.2627 -22.2627 -22.2408 -22.2408 -22.1058 -22.1057
    -7.5055  -7.3918  -6.8028  -6.7211  -5.7978  -5.6953  -5.1594  -5.0809
    -4.4642  -4.3946  -0.4517  -0.0895   0.0415   0.8266   0.8707   1.3019
     1.4995   1.7254   2.0870   2.1190   2.2738   2.3054   2.4045   2.9005
     3.0673   3.1696   3.3454   3.3711   3.5142   3.5600   3.6642   3.6860
     4.2025   4.5614   6.4400   6.6335   6.6687   6.8804   7.0851   7.2242
     7.3836   7.4878

          k = 1.2703 0.0645 0.1485 ( 36490 PWs)   bands (ev):

   -44.1679 -44.1679 -22.2627 -22.2627 -22.2408 -22.2408 -22.1058 -22.1057
    -7.4907  -7.4107  -6.7894  -6.7320  -5.7796  -5.7068  -5.1517  -5.0968
    -4.4533  -4.4043  -0.4136  -0.1586   0.1497   0.7380   0.8718   1.2356
     1.5286   1.6181   2.0528   2.1029   2.2468   2.5093   2.6567   2.9661
     2.9767   3.0714   3.2271   3.2673   3.4735   3.5387   3.7924   3.8474
     4.1898   4.4960   6.2276   6.5923   6.7619   6.9798   7.0858   7.2437
     7.3031   7.5257

          k = 1.2703 0.0645-0.2971 ( 36480 PWs)   bands (ev):

   -44.1679 -44.1679 -22.2627 -22.2627 -22.2408 -22.2408 -22.1058 -22.1058
    -7.4527  -7.4527  -6.7595  -6.7595  -5.7399  -5.7399  -5.1284  -5.1284
    -4.4282  -4.4282  -0.3011  -0.3011   0.4263   0.4263   1.0357   1.0357
     1.5615   1.5615   2.0677   2.0677   2.4764   2.4764   2.8639   2.8639
     2.9801   2.9801   3.1569   3.1569   3.5714   3.5714   3.8908   3.8908
     4.2569   4.2569   6.5109   6.5109   6.6077   6.6077   7.1879   7.1879
     7.4954   7.4956

          k =-0.5081-0.3869 0.0000 ( 36463 PWs)   bands (ev):

   -44.1687 -44.1687 -22.2674 -22.2674 -22.2184 -22.2184 -22.1083 -22.1082
    -8.1338  -8.0200  -6.9360  -6.8479  -5.7379  -5.2062  -4.9705  -4.5986
    -4.5500  -4.5096  -0.3629   0.1907   0.6600   0.7661   1.1900   1.5457
     1.6543   1.6601   1.8228   2.0271   2.1474   2.5399   2.6473   3.2683
     3.4635   3.5308   3.5959   3.6064   3.7206   3.8152   4.1238   4.2056
     4.2634   4.7951   6.0714   6.2222   6.4115   6.8020   6.9625   6.9683
     7.3348   7.4067

          k =-0.5081-0.3869 0.1485 ( 36477 PWs)   bands (ev):

   -44.1687 -44.1687 -22.2674 -22.2674 -22.2184 -22.2184 -22.1083 -22.1082
    -8.1187  -8.0384  -6.9214  -6.8594  -5.6860  -5.3454  -4.8590  -4.6101
    -4.5733  -4.4980  -0.2966   0.1043   0.6789   0.8252   1.1342   1.2290
     1.6330   1.7324   1.9447   2.0245   2.3444   2.5848   2.8976   3.1875
     3.3470   3.5270   3.5511   3.6146   3.7410   3.7546   4.1137   4.1631
     4.2594   4.5280   6.3070   6.4089   6.4664   6.7947   6.8587   7.0257
     7.1706   7.4419

          k =-0.5081-0.3869-0.2971 ( 36492 PWs)   bands (ev):

   -44.1687 -44.1687 -22.2674 -22.2674 -22.2184 -22.2184 -22.1082 -22.1082
    -8.0802  -8.0802  -6.8888  -6.8888  -5.5424  -5.5424  -4.7196  -4.7196
    -4.5235  -4.5235  -0.1137  -0.1137   0.8741   0.8741   0.9782   0.9782
     1.6873   1.6873   1.9985   1.9985   2.6992   2.6992   3.0458   3.0458
     3.3470   3.3470   3.6081   3.6081   3.6857   3.6857   4.0845   4.0845
     4.3217   4.3217   6.4886   6.4886   6.7060   6.7060   6.8455   6.8455
     7.3503   7.3504

          k =-0.2541-0.3224 0.0000 ( 36485 PWs)   bands (ev):

   -44.1696 -44.1696 -22.2721 -22.2721 -22.1958 -22.1958 -22.1108 -22.1106
    -8.5275  -8.4106  -7.0758  -6.9685  -5.8932  -5.3387  -4.7361  -4.6271
    -4.5729  -3.9123   0.2122   0.4382   0.9224   0.9897   1.1984   1.3331
     1.4098   1.7144   1.7767   2.5279   2.6023   3.1482   3.5137   3.5882
     3.6183   3.6646   3.8017   3.9030   3.9875   4.1601   4.1812   4.3871
     4.4267   4.7846   6.0649   6.1272   6.1907   6.3121   6.3925   6.9551
     6.9682   7.1352

          k =-0.2541-0.3224 0.1485 ( 36445 PWs)   bands (ev):

   -44.1696 -44.1696 -22.2721 -22.2721 -22.1958 -22.1958 -22.1108 -22.1107
    -8.5119  -8.4294  -7.0576  -6.9821  -5.8369  -5.4653  -4.7198  -4.6405
    -4.4350  -3.9861   0.2789   0.4353   0.7483   1.0164   1.1781   1.2763
     1.4233   1.7534   2.0706   2.5301   2.5948   2.9433   3.4408   3.4663
     3.6375   3.6530   3.7024   3.9205   4.0301   4.1778   4.3880   4.4188
     4.5417   4.8514   5.8958   5.9380   6.2074   6.2982   6.3738   6.8268
     7.1820   7.1906

          k =-0.2541-0.3224-0.2971 ( 36442 PWs)   bands (ev):

   -44.1696 -44.1696 -22.2721 -22.2721 -22.1958 -22.1958 -22.1107 -22.1107
    -8.4723  -8.4723  -7.0176  -7.0176  -5.6790  -5.6790  -4.6802  -4.6802
    -4.1843  -4.1843   0.4034   0.4034   0.7365   0.7365   1.2627   1.2627
     1.6256   1.6256   2.4786   2.4786   2.6315   2.6315   3.3182   3.3182
     3.6394   3.6394   3.8360   3.8360   4.1449   4.1449   4.4058   4.4058
     4.8803   4.8803   5.7251   5.7251   6.2361   6.2361   6.5511   6.5511
     7.3015   7.3015

          k = 0.0000-0.2579 0.0000 ( 36445 PWs)   bands (ev):

   -44.1700 -44.1700 -22.2740 -22.2740 -22.1864 -22.1864 -22.1118 -22.1116
    -8.6615  -8.5428  -7.1360  -7.0195  -5.9457  -5.3871  -4.7711  -4.6756
    -4.4860  -3.6873   0.1454   0.8871   1.0251   1.1473   1.2578   1.2945
     1.3413   1.6218   2.2517   2.8797   2.9128   2.9381   3.1135   3.6182
     3.6848   3.7304   4.0092   4.0264   4.1626   4.4414   4.4539   4.5674
     4.7952   4.9451   5.6563   5.8865   5.9607   6.0949   6.3013   6.5672
     7.0635   7.2416

          k = 0.0000-0.2579 0.1485 ( 36452 PWs)   bands (ev):

   -44.1700 -44.1700 -22.2740 -22.2740 -22.1864 -22.1864 -22.1118 -22.1117
    -8.6457  -8.5620  -7.1161  -7.0340  -5.8896  -5.5143  -4.7557  -4.6878
    -4.3313  -3.7850   0.2299   0.8351   1.0083   1.0661   1.2344   1.3011
     1.3341   1.8417   2.0305   2.8892   2.9304   2.9311   3.2754   3.6485
     3.6991   3.7524   3.9393   4.0501   4.2403   4.3286   4.4207   4.6538
     4.6728   4.7801   5.8396   5.9026   5.9465   6.2285   6.4104   6.4668
     6.8860   7.0311

          k = 0.0000-0.2579-0.2971 ( 36454 PWs)   bands (ev):

   -44.1700 -44.1700 -22.2740 -22.2740 -22.1864 -22.1864 -22.1117 -22.1117
    -8.6055  -8.6055  -7.0724  -7.0724  -5.7307  -5.7307  -4.7213  -4.7213
    -4.0354  -4.0354   0.4725   0.4725   1.1238   1.1238   1.3173   1.3173
     1.4013   1.4013   2.5057   2.5057   2.9107   2.9107   3.6069   3.6069
     3.7865   3.7865   4.0334   4.0334   4.1658   4.1658   4.4331   4.4331
     4.7341   4.7341   5.9043   5.9043   6.1825   6.1825   6.5510   6.5510
     6.6894   6.6894

          k = 1.5243 0.0000 0.0000 ( 36439 PWs)   bands (ev):

   -44.1687 -44.1687 -22.2674 -22.2674 -22.2184 -22.2184 -22.1083 -22.1082
    -8.1328  -8.0197  -6.9364  -6.8471  -5.7407  -5.2072  -4.9724  -4.6010
    -4.5505  -4.5062  -0.3664   0.1969   0.6543   0.7610   1.1934   1.6120
     1.6670   1.6727   1.8097   2.0165   2.1743   2.5195   2.6389   3.2483
     3.4465   3.5514   3.5616   3.6066   3.6962   3.8155   4.0830   4.2380
     4.2578   4.8059   6.0675   6.1920   6.4430   6.8454   6.9330   7.0344
     7.3112   7.4612

          k = 1.5243 0.0000 0.1485 ( 36476 PWs)   bands (ev):

   -44.1687 -44.1687 -22.2674 -22.2674 -22.2184 -22.2184 -22.1083 -22.1082
    -8.1178  -8.0380  -6.9217  -6.8588  -5.6884  -5.3466  -4.8614  -4.6108
    -4.5745  -4.4953  -0.2995   0.1079   0.6760   0.8208   1.1344   1.2382
     1.7184   1.7512   1.9157   2.0001   2.3937   2.5550   2.8849   3.1836
     3.3078   3.5332   3.5539   3.5902   3.7286   3.7476   4.1077   4.1696
     4.2471   4.5419   6.2796   6.4270   6.4678   6.8251   6.8364   7.1072
     7.1262   7.4648

          k = 1.5243 0.0000-0.2971 ( 36508 PWs)   bands (ev):

   -44.1687 -44.1687 -22.2674 -22.2674 -22.2184 -22.2184 -22.1082 -22.1082
    -8.0795  -8.0795  -6.8888  -6.8888  -5.5440  -5.5440  -4.7218  -4.7218
    -4.5221  -4.5221  -0.1143  -0.1143   0.8777   0.8777   0.9744   0.9744
     1.7482   1.7482   1.9668   1.9668   2.7368   2.7368   2.9896   2.9896
     3.3458   3.3458   3.6016   3.6016   3.6740   3.6740   4.0906   4.0906
     4.3184   4.3184   6.4766   6.4766   6.7116   6.7116   6.8494   6.8494
     7.3661   7.3661

          k =-0.2541-0.4514 0.0000 ( 36444 PWs)   bands (ev):

   -44.1696 -44.1696 -22.2721 -22.2721 -22.1958 -22.1958 -22.1108 -22.1106
    -8.5258  -8.4101  -7.0739  -6.9655  -5.9041  -5.3439  -4.7477  -4.6171
    -4.5740  -3.9128   0.2265   0.4331   0.9205   0.9954   1.3185   1.3558
     1.4221   1.7795   1.8211   2.4644   2.5328   3.2205   3.4428   3.4721
     3.5677   3.6131   3.8692   3.8901   3.9894   4.0780   4.1217   4.3087
     4.4092   4.8247   6.0646   6.1442   6.2748   6.3747   6.4179   6.8972
     6.9990   7.0878

          k =-0.2541-0.4514 0.1485 ( 36461 PWs)   bands (ev):

   -44.1696 -44.1696 -22.2721 -22.2721 -22.1958 -22.1958 -22.1108 -22.1107
    -8.5104  -8.4288  -7.0559  -6.9796  -5.8468  -5.4710  -4.7286  -4.6361
    -4.4340  -3.9862   0.2943   0.4327   0.7461   1.0381   1.2186   1.3558
     1.4626   1.7792   2.1371   2.4698   2.5217   2.9917   3.3742   3.4108
     3.5210   3.5914   3.7753   3.9183   4.0147   4.0822   4.3370   4.3966
     4.5260   4.8839   5.8889   5.9483   6.2470   6.3382   6.4348   6.7658
     7.1769   7.2015

          k =-0.2541-0.4514-0.2971 ( 36490 PWs)   bands (ev):

   -44.1696 -44.1696 -22.2721 -22.2721 -22.1958 -22.1958 -22.1107 -22.1107
    -8.4711  -8.4711  -7.0157  -7.0157  -5.6865  -5.6865  -4.6827  -4.6827
    -4.1837  -4.1836   0.4121   0.4121   0.7436   0.7436   1.3297   1.3297
     1.6559   1.6559   2.4794   2.4794   2.6149   2.6149   3.2885   3.2885
     3.5071   3.5071   3.9037   3.9037   4.0763   4.0763   4.3687   4.3687
     4.8924   4.8924   5.7226   5.7226   6.2560   6.2560   6.5614   6.5614
     7.3002   7.3002

          k = 0.0000-0.3869 0.0000 ( 36477 PWs)   bands (ev):

   -44.1700 -44.1700 -22.2740 -22.2740 -22.1864 -22.1864 -22.1118 -22.1116
    -8.6594  -8.5423  -7.1320  -7.0151  -5.9628  -5.3960  -4.7851  -4.6640
    -4.4877  -3.6876   0.1646   0.8955   1.1664   1.1701   1.2939   1.3252
     1.3408   1.6965   2.2432   2.8985   2.9235   2.9484   3.1316   3.3520
     3.4483   3.7661   3.9801   4.0332   4.0521   4.2867   4.4549   4.5329
     4.7912   4.9285   5.6961   5.9456   6.0172   6.1832   6.3222   6.5985
     6.9150   7.2417

          k = 0.0000-0.3869 0.1485 ( 36452 PWs)   bands (ev):

   -44.1700 -44.1700 -22.2740 -22.2740 -22.1864 -22.1864 -22.1118 -22.1117
    -8.6438  -8.5612  -7.1123  -7.0300  -5.9052  -5.5238  -4.7669  -4.6812
    -4.3315  -3.7850   0.2513   0.8667   1.0221   1.2025   1.3005   1.3047
     1.3336   1.8549   2.0795   2.9068   2.9420   2.9613   3.2263   3.3542
     3.4627   3.8379   3.9665   4.0220   4.1396   4.2736   4.3104   4.6395
     4.6650   4.7757   5.8896   5.9502   5.9959   6.2548   6.4282   6.4995
     6.7561   7.0349

          k = 0.0000-0.3869-0.2971 ( 36454 PWs)   bands (ev):

   -44.1700 -44.1700 -22.2740 -22.2740 -22.1864 -22.1864 -22.1117 -22.1117
    -8.6041  -8.6041  -7.0688  -7.0688  -5.7429  -5.7429  -4.7240  -4.7240
    -4.0351  -4.0351   0.4998   0.4998   1.2223   1.2223   1.3167   1.3167
     1.4186   1.4186   2.5512   2.5512   2.9254   2.9254   3.3254   3.3254
     3.8158   3.8158   4.0205   4.0205   4.1406   4.1406   4.3439   4.3439
     4.7274   4.7274   5.9461   5.9461   6.2301   6.2301   6.4787   6.4787
     6.7002   6.7002

          k =-2.0325 0.0000 0.0000 ( 36452 PWs)   bands (ev):

   -44.1700 -44.1700 -22.2740 -22.2740 -22.1864 -22.1864 -22.1118 -22.1116
    -8.6585  -8.5421  -7.1304  -7.0131  -5.9700  -5.3996  -4.7904  -4.6594
    -4.4887  -3.6878   0.1705   0.8998   1.1786   1.2811   1.2937   1.3052
     1.3405   1.7397   2.2408   2.9069   2.9307   2.9524   3.1230   3.2464
     3.3103   3.9038   3.9278   3.9680   4.0618   4.1971   4.4553   4.5187
     4.7896   4.9221   5.7125   5.9649   6.0348   6.2305   6.3311   6.6098
     6.8427   7.2417

          k =-2.0325 0.0000 0.1485 ( 36456 PWs)   bands (ev):

   -44.1700 -44.1700 -22.2740 -22.2740 -22.1864 -22.1864 -22.1118 -22.1117
    -8.6430  -8.5608  -7.1108  -7.0282  -5.9117  -5.5277  -4.7711  -4.6788
    -4.3317  -3.7851   0.2582   0.8795   1.0268   1.2962   1.3002   1.3139
     1.3333   1.8600   2.1075   2.9146   2.9467   2.9805   3.1469   3.2434
     3.3823   3.9264   3.9720   4.0101   4.1098   4.1708   4.3023   4.6341
     4.6626   4.7739   5.9113   5.9662   6.0099   6.2719   6.4356   6.5112
     6.6935   7.0364

          k =-2.0325 0.0000-0.2971 ( 36460 PWs)   bands (ev):

   -44.1700 -44.1700 -22.2740 -22.2740 -22.1864 -22.1864 -22.1117 -22.1117
    -8.6035  -8.6035  -7.0674  -7.0674  -5.7480  -5.7480  -4.7252  -4.7252
    -4.0350  -4.0350   0.5092   0.5092   1.2683   1.2683   1.3164   1.3164
     1.4311   1.4311   2.5765   2.5765   2.9316   2.9316   3.1912   3.1912
     3.8304   3.8304   4.0275   4.0275   4.1300   4.1300   4.3029   4.3029
     4.7247   4.7247   5.9592   5.9592   6.2549   6.2549   6.4404   6.4404
     6.7047   6.7047

     the Fermi energy is     5.2377 ev

!    total energy              =   -4240.88920823 Ry

     total all-electron energy =   -150287.582903 Ry
     estimated scf accuracy    <          1.0E-11 Ry
     smearing contrib. (-TS)   =       0.00000000 Ry
     internal energy E=F+TS    =   -4240.88920823 Ry

     The total energy is F=E-TS. E is the sum of the following terms:
     one-electron contribution =    -169.77234613 Ry
     hartree contribution      =     118.30964025 Ry
     xc contribution           =    -201.71765205 Ry
     ewald contribution        =    -220.14694897 Ry
     one-center paw contrib.   =   -3767.56190133 Ry

     convergence has been achieved in  17 iterations

     Forces acting on atoms (cartesian axes, Ry/au):

     atom    1 type  1   force =     0.00000000    0.02990248    0.00000000
     atom    2 type  1   force =    -0.00000000   -0.02990248    0.00000000
     atom    3 type  2   force =     0.00000000   -0.00061227    0.00000000
     atom    4 type  2   force =     0.00000000    0.00061227    0.00000000
     atom    5 type  2   force =     0.00000000   -0.00703126   -0.00567518
     atom    6 type  2   force =     0.00000000    0.00703126    0.00567518
     atom    7 type  2   force =     0.00000000   -0.00703126    0.00567518
     atom    8 type  2   force =     0.00000000    0.00703126   -0.00567518
     atom    9 type  2   force =     0.00000000   -0.06115586   -0.07655708
     atom   10 type  2   force =     0.00000000    0.06115586    0.07655708
     atom   11 type  2   force =    -0.00000000   -0.06115586    0.07655708
     atom   12 type  2   force =     0.00000000    0.06115586   -0.07655708

     Total force =     0.201295     Total SCF correction =     0.000004


     Computing stress (Cartesian axis) and pressure

          total   stress  (Ry/bohr**3)                   (kbar)     P=       18.55
   0.00016982   0.00000000   0.00000000           24.98        0.00        0.00
  -0.00000000   0.00005395   0.00000000           -0.00        7.94        0.00
   0.00000000   0.00000000   0.00015458            0.00        0.00       22.74

 
     init_run     :     18.32s CPU     18.80s WALL (       1 calls)
     electrons    :    906.66s CPU    917.15s WALL (       1 calls)
     forces       :      6.60s CPU      6.83s WALL (       1 calls)
     stress       :     42.67s CPU     43.29s WALL (       1 calls)

     Called by init_run:
     wfcinit      :     14.01s CPU     14.18s WALL (       1 calls)
     potinit      :      1.37s CPU      1.42s WALL (       1 calls)
     hinit0       :      1.71s CPU      1.75s WALL (       1 calls)

     Called by electrons:
     c_bands      :    754.59s CPU    757.78s WALL (      18 calls)
     sum_band     :    127.20s CPU    131.14s WALL (      18 calls)
     v_of_rho     :      5.31s CPU      5.59s WALL (      18 calls)
     newd         :     13.93s CPU     17.17s WALL (      18 calls)
     PAW_pot      :      5.66s CPU      5.66s WALL (      18 calls)
     mix_rho      :      0.79s CPU      0.81s WALL (      18 calls)

     Called by c_bands:
     init_us_2    :     11.03s CPU     11.09s WALL (    2457 calls)
     cegterg      :    680.40s CPU    683.14s WALL (    1134 calls)

     Called by *egterg:
     cdiaghg      :     25.56s CPU     25.62s WALL (    7537 calls)
     h_psi        :    523.73s CPU    526.33s WALL (    7663 calls)
     s_psi        :     42.08s CPU     42.16s WALL (    7663 calls)
     g_psi        :      1.83s CPU      1.84s WALL (    6466 calls)

     Called by h_psi:
     h_psi:calbec :     36.60s CPU     36.66s WALL (    7663 calls)
     vloc_psi     :    442.29s CPU    444.67s WALL (    7663 calls)
     add_vuspsi   :     41.90s CPU     41.98s WALL (    7663 calls)

     General routines
     calbec       :     49.37s CPU     49.46s WALL (    9112 calls)
     fft          :      3.24s CPU      3.37s WALL (     258 calls)
     ffts         :      0.08s CPU      0.08s WALL (      36 calls)
     fftw         :    422.96s CPU    425.12s WALL (  406100 calls)
     interpolate  :      0.28s CPU      0.28s WALL (      18 calls)
 
     Parallel routines
 
     PWSCF        :  16m14.51s CPU  16m26.47s WALL

 
   This run was terminated on:  15:33:22  19Nov2021            

=------------------------------------------------------------------------------=
   JOB DONE.
=------------------------------------------------------------------------------=
