
     Program PWSCF v.6.8 starts on 19Nov2021 at 15:17: 4 

     This program is part of the open-source Quantum ESPRESSO suite
     for quantum simulation of materials; please cite
         "P. Giannozzi et al., J. Phys.:Condens. Matter 21 395502 (2009);
         "P. Giannozzi et al., J. Phys.:Condens. Matter 29 465901 (2017);
         "P. Giannozzi et al., J. Chem. Phys. 152 154105 (2020);
          URL http://www.quantum-espresso.org", 
     in publications or presentations arising from this work. More details at
     http://www.quantum-espresso.org/quote

     Parallel version (MPI), running on    10 processors

     MPI processes distributed on     1 nodes
     R & G space division:  proc/nbgrp/npool/nimage =      10
     70454 MiB available memory on the printing compute node when the environment starts
 
     Waiting for input...
     Reading input from standard input

     Current dimensions of program PWSCF are:
     Max number of different atomic species (ntypx) = 10
     Max number of k-points (npk) =  40000
     Max angular momentum in pseudopotentials (lmaxx) =  4
     file Zr.pbe-spn-kjpaw_psl.1.0.0.UPF: wavefunction(s)  4S 4P renormalized
     file Te.pbe-n-kjpaw_psl.1.0.0.UPF: wavefunction(s)  5S 5P renormalized
     Message from routine setup:
     using ibrav=0 with symmetry is DISCOURAGED, use correct ibrav instead

     Subspace diagonalization in iterative solution of the eigenvalue problem:
     a serial algorithm will be used

 
     Parallelization info
     --------------------
     sticks:   dense  smooth     PW     G-vecs:    dense   smooth      PW
     Min         734     293     87               115340    29174    4753
     Max         735     295     88               115345    29176    4760
     Sum        7345    2937    873              1153415   291749   47557
 
     Using Slab Decomposition
 


     bravais-lattice index     =            0
     lattice parameter (alat)  =      15.5510  a.u.
     unit-cell volume          =    3018.5011 (a.u.)^3
     number of atoms/cell      =           12
     number of atomic types    =            2
     number of electrons       =        84.00
     number of Kohn-Sham states=           50
     kinetic-energy cutoff     =      80.0000  Ry
     charge density cutoff     =     800.0000  Ry
     scf convergence threshold =      1.0E-10
     mixing beta               =       0.7000
     number of iterations used =            8  plain     mixing
     Exchange-correlation= SLA  PW   PBX  PBC
                           (   1   4   3   4   0   0   0)

     celldm(1)=  15.551040  celldm(2)=   0.000000  celldm(3)=   0.000000
     celldm(4)=   0.000000  celldm(5)=   0.000000  celldm(6)=   0.000000

     crystal axes: (cart. coord. in units of alat)
               a(1) = (   0.246007  -0.969268   0.000000 )  
               a(2) = (   0.246007   0.969268   0.000000 )  
               a(3) = (   0.000000   0.000000   1.683031 )  

     reciprocal axes: (cart. coord. in units 2 pi/alat)
               b(1) = (  2.032465 -0.515853  0.000000 )  
               b(2) = (  2.032465  0.515853  0.000000 )  
               b(3) = (  0.000000  0.000000  0.594166 )  


     PseudoPot. # 1 for Zr read from file:
     pseudo/Zr.pbe-spn-kjpaw_psl.1.0.0.UPF
     MD5 check sum: 02112c41713a0468aff2bb39ef194e36
     Pseudo is Projector augmented-wave + core cor, Zval = 12.0
     Generated using &quot;atomic&quot; code by A. Dal Corso  v.6.2.2
     Shape of augmentation charge: PSQ
     Using radial grid of 1225 points,  6 beta functions with: 
                l(1) =   0
                l(2) =   0
                l(3) =   1
                l(4) =   1
                l(5) =   2
                l(6) =   2
     Q(r) pseudized with 0 coefficients 


     PseudoPot. # 2 for Te read from file:
     pseudo/Te.pbe-n-kjpaw_psl.1.0.0.UPF
     MD5 check sum: 66247bff2bd9dbf220fbb0bf5ab56e9d
     Pseudo is Projector augmented-wave + core cor, Zval =  6.0
     Generated using &quot;atomic&quot; code by A. Dal Corso  v.6.3
     Shape of augmentation charge: PSQ
     Using radial grid of 1245 points,  6 beta functions with: 
                l(1) =   0
                l(2) =   0
                l(3) =   1
                l(4) =   1
                l(5) =   2
                l(6) =   2
     Q(r) pseudized with 0 coefficients 


     atomic species   valence    mass     pseudopotential
        Zr            12.00    91.22000     Zr( 1.00)
        Te             6.00   127.60000     Te( 1.00)

      8 Sym. Ops., with inversion, found ( 4 have fractional translation)



   Cartesian axes

     site n.     atom                  positions (alat units)
         1           Zr  tau(   1) = (   0.0000000   0.5959924   0.4207578  )
         2           Zr  tau(   2) = (   0.2460067   0.3732757   1.2622733  )
         3           Te  tau(   3) = (   0.2460067   0.3340552   0.4207578  )
         4           Te  tau(   4) = (   0.0000000   0.6352130   1.2622733  )
         5           Te  tau(   5) = (   0.2460067   0.8142025   0.2550509  )
         6           Te  tau(   6) = (   0.0000000   0.1550656   1.4279801  )
         7           Te  tau(   7) = (   0.2460067   0.8142025   0.5864646  )
         8           Te  tau(   8) = (   0.0000000   0.1550656   1.0965665  )
         9           Te  tau(   9) = (   0.0000000   0.4317359   0.7469529  )
        10           Te  tau(  10) = (   0.2460067   0.5375322   0.9360782  )
        11           Te  tau(  11) = (   0.0000000   0.4317359   0.0945627  )
        12           Te  tau(  12) = (   0.2460067   0.5375322   1.5884684  )

     number of k points=    63  Methfessel-Paxton smearing, width (Ry)=  0.0030
                       cart. coord. in units 2pi/alat
        k(    1) = (   0.0000000   0.0000000   0.0000000), wk =   0.0078125
        k(    2) = (   0.0000000   0.0000000   0.1485415), wk =   0.0156250
        k(    3) = (   0.0000000   0.0000000  -0.2970830), wk =   0.0078125
        k(    4) = (   0.2540581   0.0644816   0.0000000), wk =   0.0312500
        k(    5) = (   0.2540581   0.0644816   0.1485415), wk =   0.0625000
        k(    6) = (   0.2540581   0.0644816  -0.2970830), wk =   0.0312500
        k(    7) = (   0.5081162   0.1289633   0.0000000), wk =   0.0312500
        k(    8) = (   0.5081162   0.1289633   0.1485415), wk =   0.0625000
        k(    9) = (   0.5081162   0.1289633  -0.2970830), wk =   0.0312500
        k(   10) = (   0.7621743   0.1934449   0.0000000), wk =   0.0312500
        k(   11) = (   0.7621743   0.1934449   0.1485415), wk =   0.0625000
        k(   12) = (   0.7621743   0.1934449  -0.2970830), wk =   0.0312500
        k(   13) = (  -1.0162324  -0.2579266   0.0000000), wk =   0.0156250
        k(   14) = (  -1.0162324  -0.2579266   0.1485415), wk =   0.0312500
        k(   15) = (  -1.0162324  -0.2579266  -0.2970830), wk =   0.0156250
        k(   16) = (   0.5081162   0.0000000   0.0000000), wk =   0.0156250
        k(   17) = (   0.5081162   0.0000000   0.1485415), wk =   0.0312500
        k(   18) = (   0.5081162   0.0000000  -0.2970830), wk =   0.0156250
        k(   19) = (   0.7621743   0.0644816   0.0000000), wk =   0.0312500
        k(   20) = (   0.7621743   0.0644816   0.1485415), wk =   0.0625000
        k(   21) = (   0.7621743   0.0644816  -0.2970830), wk =   0.0312500
        k(   22) = (   1.0162324   0.1289633   0.0000000), wk =   0.0312500
        k(   23) = (   1.0162324   0.1289633   0.1485415), wk =   0.0625000
        k(   24) = (   1.0162324   0.1289633  -0.2970830), wk =   0.0312500
        k(   25) = (  -0.7621743  -0.3224082   0.0000000), wk =   0.0312500
        k(   26) = (  -0.7621743  -0.3224082   0.1485415), wk =   0.0625000
        k(   27) = (  -0.7621743  -0.3224082  -0.2970830), wk =   0.0312500
        k(   28) = (  -0.5081162  -0.2579266   0.0000000), wk =   0.0312500
        k(   29) = (  -0.5081162  -0.2579266   0.1485415), wk =   0.0625000
        k(   30) = (  -0.5081162  -0.2579266  -0.2970830), wk =   0.0312500
        k(   31) = (  -0.2540581  -0.1934449   0.0000000), wk =   0.0312500
        k(   32) = (  -0.2540581  -0.1934449   0.1485415), wk =   0.0625000
        k(   33) = (  -0.2540581  -0.1934449  -0.2970830), wk =   0.0312500
        k(   34) = (   0.0000000  -0.1289633   0.0000000), wk =   0.0156250
        k(   35) = (   0.0000000  -0.1289633   0.1485415), wk =   0.0312500
        k(   36) = (   0.0000000  -0.1289633  -0.2970830), wk =   0.0156250
        k(   37) = (   1.0162324   0.0000000   0.0000000), wk =   0.0156250
        k(   38) = (   1.0162324   0.0000000   0.1485415), wk =   0.0312500
        k(   39) = (   1.0162324   0.0000000  -0.2970830), wk =   0.0156250
        k(   40) = (   1.2702905   0.0644816   0.0000000), wk =   0.0312500
        k(   41) = (   1.2702905   0.0644816   0.1485415), wk =   0.0625000
        k(   42) = (   1.2702905   0.0644816  -0.2970830), wk =   0.0312500
        k(   43) = (  -0.5081162  -0.3868899   0.0000000), wk =   0.0312500
        k(   44) = (  -0.5081162  -0.3868899   0.1485415), wk =   0.0625000
        k(   45) = (  -0.5081162  -0.3868899  -0.2970830), wk =   0.0312500
        k(   46) = (  -0.2540581  -0.3224082   0.0000000), wk =   0.0312500
        k(   47) = (  -0.2540581  -0.3224082   0.1485415), wk =   0.0625000
        k(   48) = (  -0.2540581  -0.3224082  -0.2970830), wk =   0.0312500
        k(   49) = (   0.0000000  -0.2579266   0.0000000), wk =   0.0156250
        k(   50) = (   0.0000000  -0.2579266   0.1485415), wk =   0.0312500
        k(   51) = (   0.0000000  -0.2579266  -0.2970830), wk =   0.0156250
        k(   52) = (   1.5243485   0.0000000   0.0000000), wk =   0.0156250
        k(   53) = (   1.5243485   0.0000000   0.1485415), wk =   0.0312500
        k(   54) = (   1.5243485   0.0000000  -0.2970830), wk =   0.0156250
        k(   55) = (  -0.2540581  -0.4513715   0.0000000), wk =   0.0312500
        k(   56) = (  -0.2540581  -0.4513715   0.1485415), wk =   0.0625000
        k(   57) = (  -0.2540581  -0.4513715  -0.2970830), wk =   0.0312500
        k(   58) = (   0.0000000  -0.3868899   0.0000000), wk =   0.0156250
        k(   59) = (   0.0000000  -0.3868899   0.1485415), wk =   0.0312500
        k(   60) = (   0.0000000  -0.3868899  -0.2970830), wk =   0.0156250
        k(   61) = (  -2.0324647   0.0000000   0.0000000), wk =   0.0078125
        k(   62) = (  -2.0324647   0.0000000   0.1485415), wk =   0.0156250
        k(   63) = (  -2.0324647   0.0000000  -0.2970830), wk =   0.0078125

     Dense  grid:  1153415 G-vectors     FFT dimensions: ( 144, 144, 240)

     Smooth grid:   291749 G-vectors     FFT dimensions: (  90,  90, 150)

     Estimated max dynamical RAM per process >     657.19 MB

     Estimated total dynamical RAM >       6.42 GB

     Initial potential from superposition of free atoms

     starting charge   83.99353, renormalised to   84.00000
     Starting wfcs are   66 randomized atomic wfcs
     Checking if some PAW data can be deallocated... 

     total cpu time spent up to now is       19.4 secs

     Self-consistent Calculation

     iteration #  1     ecut=    80.00 Ry     beta= 0.70
     Davidson diagonalization with overlap
     ethr =  1.00E-02,  avg # of iterations =  2.3

     Threshold (ethr) on eigenvalues was too large:
     Diagonalizing with lowered threshold

     Davidson diagonalization with overlap
     ethr =  5.09E-04,  avg # of iterations =  3.9

     total cpu time spent up to now is      103.6 secs

     total energy              =   -4240.63988457 Ry
     estimated scf accuracy    <       0.46804812 Ry

     iteration #  2     ecut=    80.00 Ry     beta= 0.70
     Davidson diagonalization with overlap
     ethr =  5.57E-04,  avg # of iterations =  8.6

     total cpu time spent up to now is      166.5 secs

     total energy              =   -4240.52236198 Ry
     estimated scf accuracy    <       2.09329731 Ry

     iteration #  3     ecut=    80.00 Ry     beta= 0.70
     Davidson diagonalization with overlap
     ethr =  5.57E-04,  avg # of iterations =  5.3

     total cpu time spent up to now is      217.9 secs

     total energy              =   -4240.86881945 Ry
     estimated scf accuracy    <       0.00818774 Ry

     iteration #  4     ecut=    80.00 Ry     beta= 0.70
     Davidson diagonalization with overlap
     c_bands:  2 eigenvalues not converged
     c_bands:  1 eigenvalues not converged
     c_bands:  2 eigenvalues not converged
     c_bands:  2 eigenvalues not converged
     c_bands:  2 eigenvalues not converged
     c_bands:  2 eigenvalues not converged
     c_bands:  2 eigenvalues not converged
     c_bands:  2 eigenvalues not converged
     ethr =  9.75E-06,  avg # of iterations = 15.4

     total cpu time spent up to now is      311.7 secs

     total energy              =   -4240.87736674 Ry
     estimated scf accuracy    <       0.02522290 Ry

     iteration #  5     ecut=    80.00 Ry     beta= 0.70
     Davidson diagonalization with overlap
     ethr =  9.75E-06,  avg # of iterations =  6.5

     total cpu time spent up to now is      360.8 secs

     total energy              =   -4240.87876854 Ry
     estimated scf accuracy    <       0.00450554 Ry

     iteration #  6     ecut=    80.00 Ry     beta= 0.70
     Davidson diagonalization with overlap
     ethr =  5.36E-06,  avg # of iterations =  5.1

     total cpu time spent up to now is      404.8 secs

     total energy              =   -4240.87926027 Ry
     estimated scf accuracy    <       0.00063160 Ry

     iteration #  7     ecut=    80.00 Ry     beta= 0.70
     Davidson diagonalization with overlap
     ethr =  7.52E-07,  avg # of iterations =  7.3

     total cpu time spent up to now is      463.4 secs

     total energy              =   -4240.87955711 Ry
     estimated scf accuracy    <       0.00066538 Ry

     iteration #  8     ecut=    80.00 Ry     beta= 0.70
     Davidson diagonalization with overlap
     ethr =  7.52E-07,  avg # of iterations =  2.0

     total cpu time spent up to now is      500.0 secs

     total energy              =   -4240.87957880 Ry
     estimated scf accuracy    <       0.00009299 Ry

     iteration #  9     ecut=    80.00 Ry     beta= 0.70
     Davidson diagonalization with overlap
     ethr =  1.11E-07,  avg # of iterations =  6.3

     total cpu time spent up to now is      550.2 secs

     total energy              =   -4240.87960994 Ry
     estimated scf accuracy    <       0.00001556 Ry

     iteration # 10     ecut=    80.00 Ry     beta= 0.70
     Davidson diagonalization with overlap
     ethr =  1.85E-08,  avg # of iterations =  3.2

     total cpu time spent up to now is      590.8 secs

     total energy              =   -4240.87961248 Ry
     estimated scf accuracy    <       0.00000059 Ry

     iteration # 11     ecut=    80.00 Ry     beta= 0.70
     Davidson diagonalization with overlap
     ethr =  6.99E-10,  avg # of iterations =  8.9

     total cpu time spent up to now is      659.0 secs

     total energy              =   -4240.87961330 Ry
     estimated scf accuracy    <       0.00000070 Ry

     iteration # 12     ecut=    80.00 Ry     beta= 0.70
     Davidson diagonalization with overlap
     ethr =  6.99E-10,  avg # of iterations =  2.0

     total cpu time spent up to now is      696.1 secs

     total energy              =   -4240.87961332 Ry
     estimated scf accuracy    <       0.00000010 Ry

     iteration # 13     ecut=    80.00 Ry     beta= 0.70
     Davidson diagonalization with overlap
     ethr =  1.14E-10,  avg # of iterations =  6.0

     total cpu time spent up to now is      748.0 secs

     total energy              =   -4240.87961336 Ry
     estimated scf accuracy    <       0.00000002 Ry

     iteration # 14     ecut=    80.00 Ry     beta= 0.70
     Davidson diagonalization with overlap
     ethr =  2.44E-11,  avg # of iterations =  2.1

     total cpu time spent up to now is      785.2 secs

     total energy              =   -4240.87961336 Ry
     estimated scf accuracy    <          4.2E-09 Ry

     iteration # 15     ecut=    80.00 Ry     beta= 0.70
     Davidson diagonalization with overlap
     ethr =  4.96E-12,  avg # of iterations =  6.1

     total cpu time spent up to now is      836.1 secs

     total energy              =   -4240.87961337 Ry
     estimated scf accuracy    <          7.4E-10 Ry

     iteration # 16     ecut=    80.00 Ry     beta= 0.70
     Davidson diagonalization with overlap
     ethr =  8.83E-13,  avg # of iterations =  2.6

     total cpu time spent up to now is      873.6 secs

     total energy              =   -4240.87961337 Ry
     estimated scf accuracy    <          1.9E-10 Ry

     iteration # 17     ecut=    80.00 Ry     beta= 0.70
     Davidson diagonalization with overlap
     ethr =  2.20E-13,  avg # of iterations =  6.2

     total cpu time spent up to now is      923.4 secs

     End of self-consistent calculation

          k = 0.0000 0.0000 0.0000 ( 36359 PWs)   bands (ev):

   -44.1735 -44.1734 -22.2762 -22.2762 -22.1888 -22.1888 -22.1161 -22.1159
    -8.7315  -8.6184  -7.1446  -7.0322  -5.8998  -5.3697  -4.7393  -4.6906
    -4.4513  -3.6731   0.0901   0.8830   0.8969   1.0816   1.1936   1.2112
     1.2520   1.5085   2.2710   2.8610   2.8986   2.9248   3.0820   3.4856
     3.9963   4.0627   4.1707   4.1848   4.3334   4.4653   4.6075   4.6268
     4.8103   4.9220   5.5968   5.7406   5.8103   6.0104   6.3020   6.4765
     7.2157   7.2649

          k = 0.0000 0.0000 0.1485 ( 36415 PWs)   bands (ev):

   -44.1735 -44.1734 -22.2762 -22.2762 -22.1888 -22.1888 -22.1161 -22.1160
    -8.7163  -8.6365  -7.1252  -7.0461  -5.8468  -5.4903  -4.7281  -4.6965
    -4.3036  -3.7695   0.1709   0.7595   0.9315   1.0185   1.1557   1.2169
     1.2457   1.8107   1.9786   2.8711   2.8886   2.9162   3.2975   3.5566
     3.8969   4.1012   4.1447   4.1821   4.3595   4.4237   4.5320   4.6767
     4.7042   4.7950   5.7384   5.8002   5.8050   6.2037   6.3751   6.4126
     7.0288   7.0444

          k = 0.0000 0.0000-0.2971 ( 36410 PWs)   bands (ev):

   -44.1735 -44.1735 -22.2762 -22.2762 -22.1888 -22.1888 -22.1160 -22.1160
    -8.6779  -8.6779  -7.0829  -7.0829  -5.6962  -5.6962  -4.7111  -4.7111
    -4.0156  -4.0156   0.4048   0.4048   1.0240   1.0240   1.2311   1.2311
     1.3973   1.3973   2.4408   2.4408   2.8943   2.8943   3.6985   3.6985
     3.8850   3.8850   4.2095   4.2095   4.2478   4.2478   4.5650   4.5650
     4.7501   4.7501   5.7823   5.7823   6.1022   6.1022   6.6151   6.6151
     6.6953   6.6953

          k = 0.2541 0.0645 0.0000 ( 36396 PWs)   bands (ev):

   -44.1731 -44.1731 -22.2742 -22.2742 -22.1981 -22.1981 -22.1151 -22.1149
    -8.5974  -8.4852  -7.0838  -6.9817  -5.8458  -5.3213  -4.6943  -4.6442
    -4.5524  -3.9049   0.1427   0.3812   0.8728   0.9929   1.0058   1.2445
     1.3294   1.5697   1.7576   2.6213   2.6609   3.0832   3.4103   3.6773
     3.7452   3.8311   3.9393   3.9939   4.1286   4.3259   4.3391   4.4727
     4.5844   4.6984   5.9881   6.0393   6.0525   6.1303   6.2883   6.8667
     7.0925   7.2767

          k = 0.2541 0.0645 0.1485 ( 36423 PWs)   bands (ev):

   -44.1731 -44.1731 -22.2742 -22.2742 -22.1981 -22.1981 -22.1151 -22.1150
    -8.5824  -8.5032  -7.0662  -6.9943  -5.7931  -5.4413  -4.6855  -4.6507
    -4.4181  -3.9779   0.2064   0.3779   0.7088   0.9300   1.0435   1.1934
     1.3397   1.7252   1.9577   2.6247   2.6468   2.8830   3.4543   3.5016
     3.5364   3.9149   4.0034   4.0925   4.1067   4.2885   4.4870   4.5717
     4.5855   4.7734   5.8825   5.9019   6.0965   6.1373   6.2083   6.9069
     7.1963   7.2332

          k = 0.2541 0.0645-0.2971 ( 36436 PWs)   bands (ev):

   -44.1731 -44.1731 -22.2742 -22.2742 -22.1981 -22.1981 -22.1150 -22.1150
    -8.5443  -8.5443  -7.0278  -7.0278  -5.6441  -5.6441  -4.6678  -4.6678
    -4.1732  -4.1732   0.3360   0.3360   0.6739   0.6739   1.1391   1.1391
     1.5789   1.5789   2.4461   2.4461   2.6489   2.6489   3.3408   3.3408
     3.7384   3.7384   4.0673   4.0673   4.2300   4.2300   4.5386   4.5386
     4.8370   4.8370   5.7267   5.7267   6.0940   6.0940   6.5421   6.5421
     7.3197   7.3197

          k = 0.5081 0.1290 0.0000 ( 36499 PWs)   bands (ev):

   -44.1722 -44.1722 -22.2696 -22.2695 -22.2207 -22.2206 -22.1126 -22.1125
    -8.2012  -8.0912  -6.9379  -6.8584  -5.7070  -5.1964  -4.9590  -4.5736
    -4.5589  -4.5262  -0.3974   0.1081   0.6739   0.7881   1.1802   1.3358
     1.5680   1.6430   1.7337   2.0633   2.1325   2.5376   2.6966   3.3727
     3.4688   3.5360   3.6290   3.7509   3.8157   3.8625   4.0664   4.2903
     4.3157   4.7187   6.1302   6.2789   6.3739   6.6151   6.7016   7.1665
     7.3482   7.5219

          k = 0.5081 0.1290 0.1485 ( 36476 PWs)   bands (ev):

   -44.1722 -44.1722 -22.2696 -22.2695 -22.2207 -22.2206 -22.1126 -22.1125
    -8.1865  -8.1089  -6.9242  -6.8684  -5.6579  -5.3312  -4.8485  -4.6125
    -4.5574  -4.5131  -0.3346   0.0324   0.6799   0.8483   1.1438   1.1669
     1.4168   1.6047   1.9974   2.0861   2.2328   2.5863   2.9398   3.2593
     3.4458   3.5102   3.5736   3.7438   3.8254   3.8288   3.9605   4.2929
     4.3449   4.4562   6.3404   6.4185   6.4844   6.6143   6.7999   7.0533
     7.2195   7.5191

          k = 0.5081 0.1290-0.2971 ( 36466 PWs)   bands (ev):

   -44.1722 -44.1722 -22.2696 -22.2696 -22.2207 -22.2207 -22.1126 -22.1126
    -8.1491  -8.1491  -6.8945  -6.8945  -5.5210  -5.5210  -4.7123  -4.7123
    -4.5268  -4.5268  -0.1635  -0.1635   0.8424   0.8424   1.0020   1.0020
     1.4994   1.4994   2.0595   2.0595   2.5968   2.5968   3.1832   3.1832
     3.3768   3.3768   3.6165   3.6165   3.8037   3.8037   4.0189   4.0189
     4.3886   4.3886   6.5535   6.5535   6.5779   6.5779   6.8979   6.8979
     7.3709   7.3709

          k = 0.7622 0.1934 0.0000 ( 36521 PWs)   bands (ev):

   -44.1714 -44.1714 -22.2649 -22.2648 -22.2430 -22.2430 -22.1101 -22.1101
    -7.5666  -7.4560  -6.7990  -6.7295  -5.8190  -5.7205  -5.1549  -5.0747
    -4.4427  -4.4026  -0.4619  -0.1123   0.0421   0.8457   0.8710   1.3305
     1.4964   1.5889   2.0239   2.0242   2.2213   2.3773   2.5037   2.8318
     3.0739   3.1388   3.3283   3.4107   3.5560   3.6344   3.7086   3.7851
     3.9705   4.6162   6.4780   6.5686   6.7342   7.0194   7.0285   7.0823
     7.4156   7.5900

          k = 0.7622 0.1934 0.1485 ( 36503 PWs)   bands (ev):

   -44.1714 -44.1714 -22.2649 -22.2648 -22.2430 -22.2430 -22.1101 -22.1101
    -7.5521  -7.4742  -6.7873  -6.7385  -5.8021  -5.7322  -5.1466  -5.0904
    -4.4360  -4.4079  -0.4244  -0.1785   0.1464   0.7135   0.9127   1.2619
     1.5029   1.5785   1.9465   2.0061   2.2514   2.5188   2.7342   2.9214
     2.9540   3.0376   3.2557   3.3094   3.5007   3.5827   3.8390   3.9302
     4.0305   4.4790   6.3184   6.5342   6.8389   6.9941   7.0752   7.1973
     7.2883   7.6630

          k = 0.7622 0.1934-0.2971 ( 36522 PWs)   bands (ev):

   -44.1714 -44.1714 -22.2649 -22.2649 -22.2430 -22.2430 -22.1101 -22.1101
    -7.5150  -7.5150  -6.7616  -6.7616  -5.7645  -5.7645  -5.1223  -5.1223
    -4.4212  -4.4212  -0.3153  -0.3153   0.4131   0.4131   1.0637   1.0637
     1.5488   1.5488   1.9551   1.9551   2.4948   2.4948   2.8597   2.8597
     2.9323   2.9323   3.2364   3.2364   3.5788   3.5788   3.9712   3.9712
     4.1549   4.1549   6.5810   6.5810   6.6324   6.6324   7.1157   7.1157
     7.6433   7.6433

          k =-1.0162-0.2579 0.0000 ( 36506 PWs)   bands (ev):

   -44.1710 -44.1710 -22.2629 -22.2629 -22.2523 -22.2523 -22.1091 -22.1091
    -6.8598  -6.8387  -6.6293  -6.6267  -6.5666  -6.5549  -5.0841  -5.0836
    -4.3831  -4.3501  -0.2568  -0.2413   0.0472   0.0674   1.0178   1.0231
     1.4668   1.6479   2.1716   2.3150   2.3565   2.3811   2.7509   2.8663
     2.9119   2.9748   3.1629   3.1785   3.2586   3.3172   3.4249   3.5617
     4.1265   4.3521   6.7782   6.8358   7.0405   7.0429   7.1620   7.2737
     7.2746   7.3391

          k =-1.0162-0.2579 0.1485 ( 36506 PWs)   bands (ev):

   -44.1710 -44.1710 -22.2629 -22.2629 -22.2523 -22.2523 -22.1091 -22.1091
    -6.8500  -6.8335  -6.6607  -6.6548  -6.5411  -6.5354  -5.0830  -5.0827
    -4.3798  -4.3565  -0.3380  -0.3330   0.2002   0.2090   1.0158   1.0206
     1.4557   1.5815   2.1072   2.2620   2.3033   2.3752   2.5948   2.6510
     2.9154   2.9775   3.1630   3.2498   3.4213   3.5037   3.5806   3.6403
     4.2150   4.3554   6.5245   6.5458   6.6717   6.7498   7.2863   7.2898
     7.5329   7.5947

          k =-1.0162-0.2579-0.2971 ( 36528 PWs)   bands (ev):

   -44.1710 -44.1710 -22.2629 -22.2629 -22.2523 -22.2523 -22.1091 -22.1091
    -6.8330  -6.8330  -6.6811  -6.6811  -6.5234  -6.5234  -5.0818  -5.0818
    -4.3698  -4.3698  -0.3912  -0.3912   0.3342   0.3342   1.0010   1.0010
     1.4907   1.4907   2.0577   2.0577   2.3150   2.3150   2.7115   2.7115
     2.7701   2.7701   3.2466   3.2466   3.5840   3.5840   3.7282   3.7282
     4.3578   4.3578   6.2399   6.2399   6.6054   6.6054   7.2955   7.2955
     7.6803   7.6803

          k = 0.5081 0.0000 0.0000 ( 36503 PWs)   bands (ev):

   -44.1722 -44.1722 -22.2696 -22.2695 -22.2207 -22.2206 -22.1126 -22.1125
    -8.2020  -8.0914  -6.9377  -6.8590  -5.7044  -5.1953  -4.9572  -4.5657
    -4.5583  -4.5350  -0.3938   0.1021   0.6853   0.7873   1.1774   1.3013
     1.5560   1.6393   1.7141   2.0693   2.1295   2.5281   2.7031   3.3840
     3.4587   3.5733   3.6420   3.7644   3.8013   3.9043   4.0423   4.2951
     4.3501   4.7025   6.1365   6.2540   6.3985   6.5798   6.6498   7.2092
     7.3497   7.5572

          k = 0.5081 0.0000 0.1485 ( 36453 PWs)   bands (ev):

   -44.1722 -44.1722 -22.2696 -22.2695 -22.2207 -22.2206 -22.1126 -22.1125
    -8.1873  -8.1092  -6.9241  -6.8687  -5.6555  -5.3300  -4.8462  -4.6119
    -4.5534  -4.5186  -0.3317   0.0289   0.6847   0.8499   1.1478   1.1564
     1.3793   1.5838   1.9976   2.1072   2.2082   2.5782   2.9454   3.2703
     3.4711   3.5020   3.5880   3.7583   3.8310   3.8894   3.9014   4.3086
     4.3832   4.4281   6.3249   6.4199   6.5013   6.5761   6.7666   7.0898
     7.2250   7.5446

          k = 0.5081 0.0000-0.2971 ( 36452 PWs)   bands (ev):

   -44.1722 -44.1722 -22.2696 -22.2696 -22.2207 -22.2207 -22.1126 -22.1126
    -8.1497  -8.1497  -6.8945  -6.8945  -5.5193  -5.5193  -4.7101  -4.7101
    -4.5283  -4.5283  -0.1629  -0.1629   0.8388   0.8388   1.0061   1.0061
     1.4680   1.4680   2.0654   2.0654   2.5838   2.5838   3.1971   3.1971
     3.3887   3.3887   3.6142   3.6142   3.8365   3.8365   3.9952   3.9952
     4.4047   4.4047   6.5367   6.5367   6.5721   6.5721   6.9135   6.9135
     7.3804   7.3804

          k = 0.7622 0.0645 0.0000 ( 36505 PWs)   bands (ev):

   -44.1714 -44.1714 -22.2649 -22.2648 -22.2430 -22.2430 -22.1101 -22.1101
    -7.5687  -7.4565  -6.7960  -6.7296  -5.8198  -5.7192  -5.1536  -5.0749
    -4.4303  -4.4155  -0.4547  -0.1052   0.0407   0.8378   0.8975   1.3429
     1.4766   1.5444   1.9913   2.0098   2.2530   2.4002   2.4586   2.8072
     3.0675   3.1693   3.3324   3.4242   3.6161   3.6449   3.7208   3.7903
     3.8769   4.6278   6.4775   6.5361   6.7692   7.0042   7.0391   7.0698
     7.4138   7.6509

          k = 0.7622 0.0645 0.1485 ( 36509 PWs)   bands (ev):

   -44.1714 -44.1714 -22.2649 -22.2648 -22.2430 -22.2430 -22.1101 -22.1101
    -7.5541  -7.4750  -6.7846  -6.7380  -5.8027  -5.7313  -5.1456  -5.0904
    -4.4273  -4.4169  -0.4171  -0.1717   0.1441   0.7056   0.9363   1.2718
     1.4808   1.5724   1.9122   1.9607   2.2701   2.5086   2.7389   2.9087
     2.9649   3.0312   3.2722   3.3201   3.5398   3.5708   3.8451   3.9617
     3.9721   4.4673   6.3441   6.5083   6.8606   6.9907   7.0552   7.2135
     7.2765   7.7099

          k = 0.7622 0.0645-0.2971 ( 36472 PWs)   bands (ev):

   -44.1714 -44.1714 -22.2648 -22.2648 -22.2430 -22.2430 -22.1101 -22.1101
    -7.5164  -7.5164  -6.7598  -6.7598  -5.7645  -5.7645  -5.1217  -5.1217
    -4.4213  -4.4213  -0.3083  -0.3083   0.4083   0.4083   1.0789   1.0789
     1.5459   1.5459   1.9044   1.9044   2.5111   2.5111   2.8578   2.8578
     2.9086   2.9086   3.2756   3.2756   3.5755   3.5755   4.0058   4.0058
     4.1055   4.1055   6.6003   6.6003   6.6397   6.6397   7.0889   7.0889
     7.6756   7.6756

          k = 1.0162 0.1290 0.0000 ( 36514 PWs)   bands (ev):

   -44.1710 -44.1710 -22.2629 -22.2629 -22.2523 -22.2523 -22.1091 -22.1091
    -6.8599  -6.8387  -6.6293  -6.6267  -6.5665  -6.5550  -5.0841  -5.0836
    -4.3831  -4.3501  -0.2623  -0.2357   0.0456   0.0690   1.0077   1.0338
     1.4748   1.6363   2.1672   2.3234   2.3666   2.3703   2.7362   2.8968
     2.9193   2.9648   3.1368   3.1847   3.2722   3.3015   3.4283   3.5686
     4.1066   4.3724   6.7698   6.8501   7.0117   7.0709   7.1881   7.2737
     7.2760   7.3129

          k = 1.0162 0.1290 0.1485 ( 36524 PWs)   bands (ev):

   -44.1710 -44.1710 -22.2629 -22.2629 -22.2523 -22.2523 -22.1091 -22.1091
    -6.8500  -6.8335  -6.6607  -6.6548  -6.5411  -6.5355  -5.0830  -5.0827
    -4.3798  -4.3565  -0.3406  -0.3305   0.2013   0.2084   1.0106   1.0257
     1.4631   1.5736   2.1085   2.2529   2.3051   2.3774   2.6041   2.6514
     2.8950   2.9939   3.1649   3.2459   3.4304   3.4794   3.5948   3.6436
     4.1953   4.3753   6.5230   6.5562   6.6675   6.7504   7.2873   7.2900
     7.5350   7.5896

          k = 1.0162 0.1290-0.2971 ( 36516 PWs)   bands (ev):

   -44.1710 -44.1710 -22.2629 -22.2629 -22.2523 -22.2523 -22.1091 -22.1091
    -6.8330  -6.8330  -6.6811  -6.6811  -6.5234  -6.5234  -5.0818  -5.0818
    -4.3698  -4.3698  -0.3913  -0.3913   0.3344   0.3344   1.0008   1.0008
     1.4919   1.4919   2.0566   2.0566   2.3144   2.3144   2.6986   2.6986
     2.7853   2.7853   3.2429   3.2429   3.5860   3.5860   3.7279   3.7279
     4.3588   4.3588   6.2436   6.2436   6.6041   6.6041   7.2960   7.2960
     7.6768   7.6768

          k =-0.7622-0.3224 0.0000 ( 36511 PWs)   bands (ev):

   -44.1714 -44.1714 -22.2649 -22.2648 -22.2430 -22.2430 -22.1101 -22.1101
    -7.5634  -7.4552  -6.8035  -6.7292  -5.8180  -5.7223  -5.1566  -5.0744
    -4.4521  -4.3925  -0.4720  -0.1216   0.0435   0.8399   0.8567   1.3154
     1.5007   1.6683   2.0465   2.0795   2.2146   2.3443   2.4937   2.8711
     3.0780   3.1358   3.3254   3.3869   3.5217   3.6013   3.6965   3.7243
     4.1142   4.5940   6.4785   6.6153   6.6994   6.9450   7.0638   7.1579
     7.4095   7.5087

          k =-0.7622-0.3224 0.1485 ( 36492 PWs)   bands (ev):

   -44.1714 -44.1714 -22.2649 -22.2648 -22.2430 -22.2430 -22.1101 -22.1101
    -7.5492  -7.4730  -6.7913  -6.7391  -5.8012  -5.7333  -5.1481  -5.0905
    -4.4427  -4.4008  -0.4345  -0.1878   0.1492   0.7243   0.8850   1.2474
     1.5221   1.5971   1.9995   2.0686   2.2387   2.5154   2.7014   2.9459
     2.9636   3.0508   3.2367   3.2892   3.4708   3.5707   3.8165   3.8820
     4.1302   4.4939   6.2858   6.5733   6.8024   6.9935   7.0943   7.2049
     7.3092   7.5804

          k =-0.7622-0.3224-0.2971 ( 36508 PWs)   bands (ev):

   -44.1714 -44.1714 -22.2649 -22.2649 -22.2430 -22.2430 -22.1101 -22.1101
    -7.5129  -7.5129  -6.7641  -6.7641  -5.7644  -5.7644  -5.1231  -5.1231
    -4.4212  -4.4212  -0.3250  -0.3250   0.4196   0.4196   1.0453   1.0453
     1.5551   1.5551   2.0206   2.0206   2.4794   2.4794   2.8615   2.8615
     2.9644   2.9644   3.1854   3.1854   3.5764   3.5764   3.9248   3.9248
     4.2231   4.2231   6.5531   6.5531   6.6255   6.6255   7.1578   7.1578
     7.5674   7.5676

          k =-0.5081-0.2579 0.0000 ( 36480 PWs)   bands (ev):

   -44.1722 -44.1722 -22.2696 -22.2695 -22.2207 -22.2206 -22.1126 -22.1125
    -8.1990  -8.0906  -6.9384  -6.8568  -5.7135  -5.1991  -4.9634  -4.5848
    -4.5602  -4.5125  -0.4061   0.1226   0.6521   0.7843   1.1875   1.4284
     1.5972   1.6508   1.7881   2.0497   2.1302   2.5571   2.6795   3.3260
     3.4745   3.4980   3.6144   3.6947   3.7776   3.8268   4.1329   4.2358
     4.2780   4.7528   6.1174   6.2970   6.3581   6.7041   6.8294   7.0702
     7.3426   7.4469

          k =-0.5081-0.2579 0.1485 ( 36485 PWs)   bands (ev):

   -44.1722 -44.1722 -22.2696 -22.2695 -22.2207 -22.2207 -22.1126 -22.1125
    -8.1845  -8.1080  -6.9247  -6.8672  -5.6636  -5.3341  -4.8540  -4.6140
    -4.5639  -4.5032  -0.3415   0.0408   0.6701   0.8422   1.1386   1.1916
     1.5129   1.6628   1.9841   2.0560   2.2763   2.6027   2.9244   3.2212
     3.3922   3.5298   3.5467   3.6971   3.7617   3.7944   4.0545   4.2382
     4.2970   4.4955   6.3714   6.3873   6.4751   6.7030   6.8837   6.9831
     7.1990   7.4657

          k =-0.5081-0.2579-0.2971 ( 36478 PWs)   bands (ev):

   -44.1722 -44.1722 -22.2696 -22.2696 -22.2207 -22.2207 -22.1126 -22.1126
    -8.1477  -8.1477  -6.8944  -6.8944  -5.5251  -5.5251  -4.7176  -4.7176
    -4.5235  -4.5235  -0.1649  -0.1649   0.8512   0.8512   0.9927   0.9927
     1.5834   1.5834   2.0386   2.0386   2.6355   2.6355   3.1308   3.1308
     3.3552   3.3552   3.6204   3.6204   3.7360   3.7360   4.0686   4.0686
     4.3533   4.3533   6.5264   6.5264   6.6538   6.6538   6.8637   6.8637
     7.3536   7.3536

          k =-0.2541-0.1934 0.0000 ( 36410 PWs)   bands (ev):

   -44.1731 -44.1731 -22.2742 -22.2742 -22.1981 -22.1981 -22.1151 -22.1149
    -8.5959  -8.4848  -7.0815  -6.9793  -5.8563  -5.3268  -4.7105  -4.6329
    -4.5500  -3.9053   0.1640   0.3758   0.8607   0.9963   1.0806   1.2690
     1.3597   1.6266   1.7658   2.5926   2.6500   3.0938   3.4540   3.6537
     3.7458   3.7599   3.9255   3.9274   3.9940   4.2504   4.2661   4.4470
     4.5328   4.7355   6.0178   6.0770   6.1108   6.2042   6.3220   6.9131
     7.0481   7.2198

          k =-0.2541-0.1934 0.1485 ( 36427 PWs)   bands (ev):

   -44.1731 -44.1731 -22.2742 -22.2742 -22.1981 -22.1981 -22.1151 -22.1150
    -8.5810  -8.5026  -7.0641  -6.9921  -5.8028  -5.4472  -4.6985  -4.6419
    -4.4170  -3.9780   0.2277   0.3753   0.7057   0.9583   1.0990   1.2151
     1.3689   1.7350   1.9966   2.5926   2.6407   2.8972   3.4565   3.4894
     3.5895   3.8513   3.9083   3.9236   4.0765   4.2487   4.4523   4.5045
     4.5646   4.8089   5.8717   5.9204   6.1572   6.2140   6.2684   6.8900
     7.1882   7.2072

          k =-0.2541-0.1934-0.2971 ( 36422 PWs)   bands (ev):

   -44.1731 -44.1731 -22.2742 -22.2742 -22.1981 -22.1981 -22.1150 -22.1150
    -8.5433  -8.5433  -7.0258  -7.0258  -5.6518  -5.6518  -4.6700  -4.6700
    -4.1727  -4.1727   0.3471   0.3471   0.6858   0.6858   1.1859   1.1859
     1.5913   1.5913   2.4583   2.4583   2.6459   2.6459   3.3365   3.3365
     3.7752   3.7752   3.8806   3.8806   4.2069   4.2069   4.4842   4.4842
     4.8520   4.8520   5.7198   5.7198   6.1718   6.1718   6.5440   6.5440
     7.3062   7.3062

          k = 0.0000-0.1290 0.0000 ( 36417 PWs)   bands (ev):

   -44.1735 -44.1734 -22.2762 -22.2762 -22.1888 -22.1888 -22.1161 -22.1159
    -8.7307  -8.6181  -7.1427  -7.0307  -5.9066  -5.3736  -4.7482  -4.6830
    -4.4516  -3.6732   0.1024   0.8974   0.9239   1.0943   1.2055   1.2110
     1.2517   1.5442   2.2666   2.8679   2.8968   2.9294   3.0837   3.5241
     3.9997   4.0285   4.0508   4.0525   4.2829   4.4658   4.5838   4.5931
     4.8085   4.9116   5.6126   5.7871   5.8654   6.0375   6.3105   6.4918
     7.1769   7.2652

          k = 0.0000-0.1290 0.1485 ( 36419 PWs)   bands (ev):

   -44.1735 -44.1735 -22.2762 -22.2762 -22.1888 -22.1888 -22.1161 -22.1160
    -8.7156  -8.6362  -7.1235  -7.0446  -5.8532  -5.4944  -4.7357  -4.6907
    -4.3037  -3.7695   0.1843   0.7785   0.9618   1.0225   1.1780   1.2167
     1.2455   1.8201   1.9915   2.8776   2.8945   2.9211   3.2854   3.5977
     3.9095   4.0101   4.0426   4.0898   4.3529   4.3635   4.5172   4.6698
     4.6795   4.7930   5.7687   5.8295   5.8576   6.2100   6.3931   6.4198
     6.9890   7.0461

          k = 0.0000-0.1290-0.2971 ( 36464 PWs)   bands (ev):

   -44.1735 -44.1735 -22.2762 -22.2762 -22.1888 -22.1888 -22.1160 -22.1160
    -8.6774  -8.6774  -7.0814  -7.0814  -5.7013  -5.7013  -4.7122  -4.7122
    -4.0156  -4.0156   0.4207   0.4207   1.0511   1.0511   1.2309   1.2309
     1.4002   1.4002   2.4549   2.4549   2.9001   2.9001   3.7085   3.7085
     3.8573   3.8573   4.1356   4.1356   4.1995   4.1995   4.5318   4.5318
     4.7469   4.7469   5.8263   5.8263   6.1183   6.1183   6.5965   6.5965
     6.6997   6.6997

          k = 1.0162 0.0000 0.0000 ( 36499 PWs)   bands (ev):

   -44.1710 -44.1710 -22.2629 -22.2629 -22.2523 -22.2523 -22.1091 -22.1091
    -6.8599  -6.8386  -6.6293  -6.6267  -6.5665  -6.5551  -5.0840  -5.0836
    -4.3831  -4.3501  -0.2661  -0.2318   0.0442   0.0705   1.0028   1.0392
     1.4842   1.6234   2.1632   2.3419   2.3496   2.3763   2.7255   2.9271
     2.9365   2.9448   3.1006   3.2181   3.2741   3.2761   3.4323   3.5755
     4.0895   4.3899   6.7636   6.8626   6.9993   7.0826   7.2505   7.2506
     7.2738   7.2774

          k = 1.0162 0.0000 0.1485 ( 36485 PWs)   bands (ev):

   -44.1710 -44.1710 -22.2629 -22.2629 -22.2523 -22.2523 -22.1091 -22.1091
    -6.8500  -6.8335  -6.6607  -6.6548  -6.5410  -6.5355  -5.0830  -5.0827
    -4.3798  -4.3565  -0.3424  -0.3290   0.2025   0.2075   1.0078   1.0284
     1.4719   1.5644   2.1098   2.2430   2.3102   2.3766   2.6195   2.6453
     2.8808   3.0050   3.1674   3.2409   3.4407   3.4615   3.5975   3.6511
     4.1793   4.3916   6.5232   6.5652   6.6634   6.7508   7.2882   7.2903
     7.5380   7.5837

          k = 1.0162 0.0000-0.2971 ( 36514 PWs)   bands (ev):

   -44.1710 -44.1710 -22.2629 -22.2629 -22.2523 -22.2523 -22.1091 -22.1091
    -6.8330  -6.8330  -6.6811  -6.6811  -6.5235  -6.5235  -5.0818  -5.0818
    -4.3698  -4.3698  -0.3914  -0.3914   0.3347   0.3347   1.0005   1.0005
     1.4931   1.4931   2.0554   2.0554   2.3138   2.3138   2.6889   2.6889
     2.7972   2.7972   3.2391   3.2391   3.5880   3.5880   3.7275   3.7275
     4.3598   4.3598   6.2474   6.2474   6.6028   6.6028   7.2965   7.2965
     7.6728   7.6728

          k = 1.2703 0.0645 0.0000 ( 36468 PWs)   bands (ev):

   -44.1714 -44.1714 -22.2649 -22.2648 -22.2430 -22.2430 -22.1101 -22.1101
    -7.5612  -7.4547  -6.8067  -6.7289  -5.8172  -5.7236  -5.1579  -5.0743
    -4.4572  -4.3870  -0.4791  -0.1279   0.0441   0.8212   0.8644   1.3061
     1.4987   1.7270   2.0643   2.1104   2.2795   2.3198   2.4043   2.9040
     3.0757   3.1606   3.3391   3.3640   3.5159   3.5596   3.6712   3.6895
     4.2192   4.5688   6.4789   6.6501   6.6830   6.8911   7.0895   7.2343
     7.3870   7.4757

          k = 1.2703 0.0645 0.1485 ( 36490 PWs)   bands (ev):

   -44.1714 -44.1714 -22.2649 -22.2648 -22.2430 -22.2430 -22.1101 -22.1101
    -7.5472  -7.4722  -6.7942  -6.7395  -5.8006  -5.7342  -5.1492  -5.0906
    -4.4462  -4.3969  -0.4415  -0.1941   0.1508   0.7317   0.8683   1.2377
     1.5278   1.6163   2.0493   2.0932   2.2538   2.4988   2.6609   2.9692
     2.9757   3.0734   3.2185   3.2733   3.4699   3.5404   3.7963   3.8492
     4.2064   4.5015   6.2654   6.6036   6.7726   6.9898   7.0927   7.2505
     7.3196   7.5189

          k = 1.2703 0.0645-0.2971 ( 36480 PWs)   bands (ev):

   -44.1714 -44.1714 -22.2649 -22.2649 -22.2430 -22.2430 -22.1101 -22.1101
    -7.5114  -7.5114  -6.7659  -6.7659  -5.7643  -5.7643  -5.1236  -5.1236
    -4.4211  -4.4211  -0.3318  -0.3318   0.4239   0.4239   1.0342   1.0342
     1.5605   1.5605   2.0621   2.0621   2.4750   2.4750   2.8669   2.8669
     2.9765   2.9765   3.1581   3.1581   3.5689   3.5689   3.8925   3.8925
     4.2719   4.2719   6.5347   6.5347   6.6211   6.6211   7.1916   7.1916
     7.4942   7.4943

          k =-0.5081-0.3869 0.0000 ( 36463 PWs)   bands (ev):

   -44.1722 -44.1722 -22.2696 -22.2695 -22.2207 -22.2206 -22.1126 -22.1125
    -8.1968  -8.0900  -6.9393  -6.8547  -5.7201  -5.2017  -4.9679  -4.5923
    -4.5614  -4.5026  -0.4146   0.1369   0.6354   0.7754   1.1952   1.5468
     1.6266   1.6611   1.8301   2.0255   2.1447   2.5532   2.6602   3.2627
     3.4480   3.5370   3.6015   3.6112   3.7190   3.8244   4.1379   4.2213
     4.2650   4.7826   6.1069   6.2334   6.4259   6.8003   6.9724   6.9809
     7.3245   7.3985

          k =-0.5081-0.3869 0.1485 ( 36477 PWs)   bands (ev):

   -44.1722 -44.1722 -22.2696 -22.2695 -22.2207 -22.2207 -22.1126 -22.1125
    -8.1825  -8.1072  -6.9255  -6.8659  -5.6694  -5.3370  -4.8595  -4.6158
    -4.5680  -4.4956  -0.3483   0.0489   0.6623   0.8334   1.1372   1.2152
     1.6346   1.7334   1.9443   2.0235   2.3365   2.5952   2.9025   3.1802
     3.3353   3.5283   3.5581   3.6197   3.7408   3.7628   4.1333   4.1734
     4.2665   4.5299   6.3181   6.4219   6.4789   6.7939   6.8706   7.0383
     7.1658   7.4326

          k =-0.5081-0.3869-0.2971 ( 36492 PWs)   bands (ev):

   -44.1722 -44.1722 -22.2696 -22.2696 -22.2207 -22.2207 -22.1126 -22.1126
    -8.1462  -8.1462  -6.8943  -6.8943  -5.5291  -5.5291  -4.7227  -4.7227
    -4.5203  -4.5203  -0.1664  -0.1664   0.8600   0.8600   0.9836   0.9836
     1.6899   1.6899   1.9984   1.9984   2.6935   2.6935   3.0407   3.0407
     3.3444   3.3444   3.6181   3.6181   3.6865   3.6865   4.1030   4.1030
     4.3302   4.3302   6.4976   6.4976   6.7063   6.7063   6.8465   6.8465
     7.3570   7.3570

          k =-0.2541-0.3224 0.0000 ( 36485 PWs)   bands (ev):

   -44.1731 -44.1731 -22.2742 -22.2742 -22.1981 -22.1981 -22.1151 -22.1149
    -8.5938  -8.4843  -7.0785  -6.9754  -5.8715  -5.3346  -4.7286  -4.6197
    -4.5487  -3.9060   0.1896   0.3685   0.8507   1.0029   1.2007   1.3017
     1.4117   1.7145   1.7827   2.5318   2.6060   3.1374   3.5221   3.5885
     3.6115   3.6719   3.8035   3.8964   3.9976   4.1701   4.1816   4.4062
     4.4397   4.7971   6.0175   6.1239   6.2042   6.3067   6.3688   6.9723
     6.9773   7.1433

          k =-0.2541-0.3224 0.1485 ( 36445 PWs)   bands (ev):

   -44.1731 -44.1731 -22.2742 -22.2742 -22.1981 -22.1981 -22.1151 -22.1150
    -8.5791  -8.5018  -7.0613  -6.9886  -5.8166  -5.4555  -4.7125  -4.6338
    -4.4156  -3.9782   0.2540   0.3715   0.7014   0.9920   1.1758   1.2736
     1.4195   1.7571   2.0604   2.5338   2.5988   2.9374   3.4412   3.4630
     3.6392   3.6603   3.7111   3.9237   4.0407   4.1841   4.4036   4.4302
     4.5342   4.8581   5.8603   5.9397   6.2162   6.2870   6.3673   6.8329
     7.1840   7.1950

          k =-0.2541-0.3224-0.2971 ( 36442 PWs)   bands (ev):

   -44.1731 -44.1731 -22.2742 -22.2742 -22.1981 -22.1981 -22.1150 -22.1150
    -8.5418  -8.5418  -7.0230  -7.0230  -5.6625  -5.6625  -4.6732  -4.6732
    -4.1719  -4.1719   0.3602   0.3602   0.7003   0.7003   1.2653   1.2653
     1.6177   1.6177   2.4755   2.4755   2.6304   2.6304   3.3215   3.3215
     3.6454   3.6454   3.8413   3.8413   4.1532   4.1532   4.4189   4.4189
     4.8704   4.8704   5.7162   5.7162   6.2364   6.2364   6.5515   6.5515
     7.2954   7.2954

          k = 0.0000-0.2579 0.0000 ( 36445 PWs)   bands (ev):

   -44.1735 -44.1735 -22.2762 -22.2762 -22.1888 -22.1888 -22.1161 -22.1159
    -8.7288  -8.6176  -7.1383  -7.0266  -5.9234  -5.3828  -4.7648  -4.6690
    -4.4529  -3.6734   0.1276   0.9020   1.0310   1.1210   1.2104   1.2512
     1.2619   1.6181   2.2565   2.8853   2.8980   2.9403   3.0940   3.6290
     3.6932   3.7356   4.0220   4.0434   4.1631   4.4660   4.4669   4.5582
     4.8043   4.8925   5.6512   5.8724   5.9550   6.1091   6.3313   6.5245
     7.0607   7.2656

          k = 0.0000-0.2579 0.1485 ( 36452 PWs)   bands (ev):

   -44.1735 -44.1735 -22.2762 -22.2762 -22.1888 -22.1888 -22.1161 -22.1160
    -8.7139  -8.6354  -7.1194  -7.0408  -5.8686  -5.5043  -4.7492  -4.6814
    -4.3041  -3.7696   0.2122   0.8155   1.0202   1.0728   1.2161   1.2394
     1.2450   1.8381   2.0284   2.8941   2.9141   2.9330   3.2623   3.6620
     3.7011   3.7571   3.9467   4.0619   4.2485   4.3355   4.4348   4.6480
     4.6543   4.7883   5.8196   5.8969   5.9405   6.2287   6.4310   6.4374
     6.8808   7.0500

          k = 0.0000-0.2579-0.2971 ( 36454 PWs)   bands (ev):

   -44.1735 -44.1735 -22.2762 -22.2762 -22.1888 -22.1888 -22.1160 -22.1160
    -8.6761  -8.6761  -7.0778  -7.0778  -5.7137  -5.7137  -4.7147  -4.7147
    -4.0155  -4.0155   0.4547   0.4547   1.1292   1.1292   1.2303   1.2303
     1.4098   1.4098   2.4923   2.4923   2.9143   2.9143   3.6136   3.6136
     3.7875   3.7875   4.0192   4.0192   4.1748   4.1748   4.4478   4.4478
     4.7396   4.7396   5.8963   5.8963   6.1597   6.1597   6.5414   6.5414
     6.7105   6.7105

          k = 1.5243 0.0000 0.0000 ( 36439 PWs)   bands (ev):

   -44.1722 -44.1722 -22.2696 -22.2695 -22.2207 -22.2206 -22.1126 -22.1125
    -8.1959  -8.0898  -6.9398  -6.8538  -5.7228  -5.2028  -4.9697  -4.5947
    -4.5620  -4.4991  -0.4181   0.1428   0.6296   0.7707   1.1985   1.6127
     1.6390   1.6725   1.8186   2.0151   2.1706   2.5329   2.6515   3.2458
     3.4287   3.5579   3.5685   3.6108   3.6937   3.8225   4.1009   4.2526
     4.2595   4.7941   6.1030   6.2041   6.4574   6.8431   6.9457   7.0455
     7.3023   7.4538

          k = 1.5243 0.0000 0.1485 ( 36476 PWs)   bands (ev):

   -44.1722 -44.1722 -22.2696 -22.2695 -22.2207 -22.2207 -22.1126 -22.1125
    -8.1817  -8.1068  -6.9258  -6.8652  -5.6718  -5.3381  -4.8618  -4.6165
    -4.5693  -4.4928  -0.3511   0.0522   0.6595   0.8291   1.1374   1.2246
     1.7184   1.7538   1.9140   1.9993   2.3843   2.5673   2.8886   3.1808
     3.2934   3.5334   3.5629   3.5941   3.7270   3.7559   4.1293   4.1778
     4.2565   4.5443   6.2908   6.4400   6.4813   6.8347   6.8383   7.1191
     7.1228   7.4448

          k = 1.5243 0.0000-0.2971 ( 36508 PWs)   bands (ev):

   -44.1722 -44.1722 -22.2696 -22.2696 -22.2207 -22.2207 -22.1126 -22.1126
    -8.1456  -8.1456  -6.8943  -6.8943  -5.5308  -5.5308  -4.7248  -4.7248
    -4.5190  -4.5190  -0.1670  -0.1670   0.8637   0.8637   0.9797   0.9797
     1.7505   1.7505   1.9663   1.9663   2.7321   2.7321   2.9838   2.9838
     3.3429   3.3429   3.6126   3.6126   3.6738   3.6738   4.1097   4.1097
     4.3276   4.3276   6.4857   6.4857   6.7122   6.7122   6.8508   6.8508
     7.3710   7.3710

          k =-0.2541-0.4514 0.0000 ( 36444 PWs)   bands (ev):

   -44.1731 -44.1731 -22.2742 -22.2742 -22.1981 -22.1981 -22.1151 -22.1149
    -8.5923  -8.4839  -7.0767  -6.9722  -5.8824  -5.3400  -4.7398  -4.6103
    -4.5496  -3.9064   0.2043   0.3635   0.8467   1.0086   1.3236   1.3237
     1.4232   1.7712   1.8346   2.4692   2.5367   3.2115   3.4439   3.4727
     3.5757   3.6101   3.8526   3.8944   3.9980   4.0889   4.1324   4.3277
     4.4198   4.8380   6.0102   6.1505   6.2896   6.3685   6.3937   6.9040
     7.0206   7.0949

          k =-0.2541-0.4514 0.1485 ( 36461 PWs)   bands (ev):

   -44.1731 -44.1731 -22.2742 -22.2742 -22.1981 -22.1981 -22.1151 -22.1150
    -8.5777  -8.5012  -7.0595  -6.9859  -5.8264  -5.4613  -4.7211  -4.6293
    -4.4148  -3.9783   0.2698   0.3687   0.6984   1.0140   1.2106   1.3574
     1.4588   1.7816   2.1287   2.4746   2.5259   2.9876   3.3747   3.4088
     3.5226   3.5933   3.7799   3.9217   4.0273   4.0940   4.3528   4.4071
     4.5161   4.8913   5.8534   5.9516   6.2575   6.3283   6.4267   6.7699
     7.1753   7.2108

          k =-0.2541-0.4514-0.2971 ( 36490 PWs)   bands (ev):

   -44.1731 -44.1731 -22.2742 -22.2742 -22.1981 -22.1981 -22.1150 -22.1150
    -8.5408  -8.5408  -7.0210  -7.0210  -5.6701  -5.6701  -4.6756  -4.6756
    -4.1713  -4.1713   0.3678   0.3678   0.7086   0.7086   1.3302   1.3302
     1.6488   1.6488   2.4830   2.4830   2.6087   2.6087   3.2907   3.2907
     3.5121   3.5121   3.9075   3.9075   4.0878   4.0878   4.3810   4.3810
     4.8820   4.8820   5.7159   5.7159   6.2597   6.2597   6.5571   6.5571
     7.2938   7.2938

          k = 0.0000-0.3869 0.0000 ( 36477 PWs)   bands (ev):

   -44.1735 -44.1735 -22.2762 -22.2762 -22.1888 -22.1888 -22.1161 -22.1159
    -8.7269  -8.6171  -7.1344  -7.0219  -5.9404  -5.3920  -4.7785  -4.6574
    -4.4549  -3.6737   0.1464   0.9104   1.1434   1.1718   1.2098   1.2507
     1.3301   1.6923   2.2478   2.9041   2.9072   2.9508   3.1190   3.3579
     3.4481   3.7748   3.9928   4.0352   4.0690   4.3145   4.4680   4.5234
     4.8002   4.8766   5.6902   5.9314   6.0120   6.1982   6.3525   6.5516
     6.9172   7.2658

          k = 0.0000-0.3869 0.1485 ( 36452 PWs)   bands (ev):

   -44.1735 -44.1735 -22.2762 -22.2762 -22.1888 -22.1888 -22.1161 -22.1160
    -8.7121  -8.6347  -7.1157  -7.0365  -5.8841  -5.5140  -4.7602  -4.6746
    -4.3046  -3.7696   0.2335   0.8475   1.0345   1.2071   1.2155   1.2444
     1.3097   1.8523   2.0769   2.9118   2.9448   2.9480   3.2185   3.3575
     3.4599   3.8441   3.9701   4.0335   4.1544   4.2933   4.3162   4.6357
     4.6408   4.7838   5.8666   5.9459   5.9904   6.2581   6.4553   6.4609
     6.7530   7.0539

          k = 0.0000-0.3869-0.2971 ( 36454 PWs)   bands (ev):

   -44.1735 -44.1735 -22.2762 -22.2762 -22.1888 -22.1888 -22.1160 -22.1160
    -8.6748  -8.6748  -7.0741  -7.0741  -5.7260  -5.7260  -4.7173  -4.7173
    -4.0153  -4.0153   0.4822   0.4822   1.2269   1.2269   1.2297   1.2297
     1.4266   1.4266   2.5395   2.5395   2.9291   2.9291   3.3311   3.3311
     3.8068   3.8068   4.0191   4.0191   4.1492   4.1492   4.3552   4.3552
     4.7329   4.7329   5.9393   5.9393   6.2054   6.2054   6.4704   6.4704
     6.7215   6.7215

          k =-2.0325 0.0000 0.0000 ( 36452 PWs)   bands (ev):

   -44.1735 -44.1735 -22.2762 -22.2762 -22.1888 -22.1888 -22.1161 -22.1159
    -8.7261  -8.6169  -7.1329  -7.0198  -5.9476  -5.3957  -4.7837  -4.6529
    -4.4559  -3.6738   0.1523   0.9149   1.1515   1.2095   1.2505   1.2847
     1.3119   1.7349   2.2455   2.9125   2.9135   2.9550   3.1231   3.2548
     3.2946   3.9066   3.9336   3.9806   4.0789   4.2284   4.4685   4.5090
     4.7985   4.8703   5.7064   5.9507   6.0298   6.2461   6.3614   6.5604
     6.8465   7.2658

          k =-2.0325 0.0000 0.1485 ( 36456 PWs)   bands (ev):

   -44.1735 -44.1735 -22.2762 -22.2762 -22.1888 -22.1888 -22.1161 -22.1160
    -8.7114  -8.6344  -7.1143  -7.0345  -5.8906  -5.5180  -4.7643  -4.6722
    -4.3048  -3.7696   0.2404   0.8604   1.0392   1.2153   1.2442   1.3004
     1.3181   1.8576   2.1050   2.9196   2.9496   2.9723   3.1467   3.2400
     3.3721   3.9267   3.9756   4.0216   4.1293   4.1941   4.3077   4.6324
     4.6357   4.7820   5.8867   5.9623   6.0048   6.2778   6.4629   6.4703
     6.6914   7.0555

          k =-2.0325 0.0000-0.2971 ( 36460 PWs)   bands (ev):

   -44.1735 -44.1735 -22.2762 -22.2762 -22.1888 -22.1888 -22.1160 -22.1160
    -8.6742  -8.6742  -7.0725  -7.0725  -5.7311  -5.7311  -4.7184  -4.7184
    -4.0152  -4.0152   0.4918   0.4918   1.2295   1.2295   1.2723   1.2723
     1.4388   1.4388   2.5662   2.5662   2.9354   2.9354   3.1956   3.1956
     3.8162   3.8162   4.0343   4.0343   4.1384   4.1384   4.3115   4.3115
     4.7302   4.7302   5.9531   5.9531   6.2282   6.2282   6.4338   6.4338
     6.7262   6.7262

     the Fermi energy is     5.2361 ev

!    total energy              =   -4240.87961337 Ry

     total all-electron energy =   -150287.573308 Ry
     estimated scf accuracy    <          3.0E-11 Ry
     smearing contrib. (-TS)   =       0.00000000 Ry
     internal energy E=F+TS    =   -4240.87961337 Ry

     The total energy is F=E-TS. E is the sum of the following terms:
     one-electron contribution =    -169.94737658 Ry
     hartree contribution      =     118.39264338 Ry
     xc contribution           =    -201.73516207 Ry
     ewald contribution        =    -220.02391793 Ry
     one-center paw contrib.   =   -3767.56580017 Ry

     convergence has been achieved in  17 iterations

     Forces acting on atoms (cartesian axes, Ry/au):

     atom    1 type  1   force =     0.00000000    0.03165297    0.00000000
     atom    2 type  1   force =     0.00000000   -0.03165297    0.00000000
     atom    3 type  2   force =     0.00000000   -0.00071633    0.00000000
     atom    4 type  2   force =     0.00000000    0.00071633    0.00000000
     atom    5 type  2   force =     0.00000000   -0.00746212   -0.00624156
     atom    6 type  2   force =     0.00000000    0.00746212    0.00624156
     atom    7 type  2   force =     0.00000000   -0.00746212    0.00624156
     atom    8 type  2   force =     0.00000000    0.00746212   -0.00624156
     atom    9 type  2   force =    -0.00000000   -0.06582509   -0.08354752
     atom   10 type  2   force =    -0.00000000    0.06582509    0.08354752
     atom   11 type  2   force =     0.00000000   -0.06582509    0.08354752
     atom   12 type  2   force =     0.00000000    0.06582509   -0.08354752

     Total force =     0.218257     Total SCF correction =     0.000008


     Computing stress (Cartesian axis) and pressure

          total   stress  (Ry/bohr**3)                   (kbar)     P=       20.31
   0.00019019   0.00000000   0.00000000           27.98        0.00        0.00
  -0.00000000   0.00005664   0.00000000           -0.00        8.33        0.00
   0.00000000   0.00000000   0.00016735            0.00        0.00       24.62

 
     init_run     :     18.64s CPU     19.14s WALL (       1 calls)
     electrons    :    893.64s CPU    903.97s WALL (       1 calls)
     forces       :      6.77s CPU      7.01s WALL (       1 calls)
     stress       :     43.03s CPU     43.63s WALL (       1 calls)

     Called by init_run:
     wfcinit      :     14.20s CPU     14.38s WALL (       1 calls)
     potinit      :      1.43s CPU      1.48s WALL (       1 calls)
     hinit0       :      1.75s CPU      1.80s WALL (       1 calls)

     Called by electrons:
     c_bands      :    744.22s CPU    747.34s WALL (      18 calls)
     sum_band     :    124.62s CPU    128.46s WALL (      18 calls)
     v_of_rho     :      5.40s CPU      5.66s WALL (      18 calls)
     newd         :     13.79s CPU     17.05s WALL (      18 calls)
     PAW_pot      :      5.74s CPU      5.75s WALL (      18 calls)
     mix_rho      :      0.79s CPU      0.83s WALL (      18 calls)

     Called by c_bands:
     init_us_2    :     11.33s CPU     11.37s WALL (    2457 calls)
     cegterg      :    669.66s CPU    672.28s WALL (    1134 calls)

     Called by *egterg:
     cdiaghg      :     24.91s CPU     25.00s WALL (    7347 calls)
     h_psi        :    516.13s CPU    518.60s WALL (    7473 calls)
     s_psi        :     41.71s CPU     41.76s WALL (    7473 calls)
     g_psi        :      1.86s CPU      1.87s WALL (    6276 calls)

     Called by h_psi:
     h_psi:calbec :     36.05s CPU     36.13s WALL (    7473 calls)
     vloc_psi     :    435.62s CPU    437.85s WALL (    7473 calls)
     add_vuspsi   :     41.49s CPU     41.57s WALL (    7473 calls)

     General routines
     calbec       :     48.36s CPU     48.47s WALL (    8922 calls)
     fft          :      3.19s CPU      3.30s WALL (     258 calls)
     ffts         :      0.08s CPU      0.08s WALL (      36 calls)
     fftw         :    405.75s CPU    407.78s WALL (  403350 calls)
     interpolate  :      0.28s CPU      0.28s WALL (      18 calls)
 
     Parallel routines
 
     PWSCF        :  16m 2.33s CPU  16m14.06s WALL

 
   This run was terminated on:  15:33:18  19Nov2021            

=------------------------------------------------------------------------------=
   JOB DONE.
=------------------------------------------------------------------------------=
