
     Program PWSCF v.6.8 starts on 19Nov2021 at 15:17:32 

     This program is part of the open-source Quantum ESPRESSO suite
     for quantum simulation of materials; please cite
         "P. Giannozzi et al., J. Phys.:Condens. Matter 21 395502 (2009);
         "P. Giannozzi et al., J. Phys.:Condens. Matter 29 465901 (2017);
         "P. Giannozzi et al., J. Chem. Phys. 152 154105 (2020);
          URL http://www.quantum-espresso.org", 
     in publications or presentations arising from this work. More details at
     http://www.quantum-espresso.org/quote

     Parallel version (MPI), running on    10 processors

     MPI processes distributed on     1 nodes
     R & G space division:  proc/nbgrp/npool/nimage =      10
     67698 MiB available memory on the printing compute node when the environment starts
 
     Waiting for input...
     Reading input from standard input

     Current dimensions of program PWSCF are:
     Max number of different atomic species (ntypx) = 10
     Max number of k-points (npk) =  40000
     Max angular momentum in pseudopotentials (lmaxx) =  4
     file Zr.pbe-spn-kjpaw_psl.1.0.0.UPF: wavefunction(s)  4S 4P renormalized
     file Te.pbe-n-kjpaw_psl.1.0.0.UPF: wavefunction(s)  5S 5P renormalized
     Message from routine setup:
     using ibrav=0 with symmetry is DISCOURAGED, use correct ibrav instead

     Subspace diagonalization in iterative solution of the eigenvalue problem:
     a serial algorithm will be used

 
     Parallelization info
     --------------------
     sticks:   dense  smooth     PW     G-vecs:    dense   smooth      PW
     Min         734     293     87               115340    29174    4753
     Max         735     295     88               115345    29176    4760
     Sum        7345    2937    873              1153415   291749   47557
 
     Using Slab Decomposition
 


     bravais-lattice index     =            0
     lattice parameter (alat)  =      15.5510  a.u.
     unit-cell volume          =    3018.5011 (a.u.)^3
     number of atoms/cell      =           12
     number of atomic types    =            2
     number of electrons       =        84.00
     number of Kohn-Sham states=           50
     kinetic-energy cutoff     =      80.0000  Ry
     charge density cutoff     =     800.0000  Ry
     scf convergence threshold =      1.0E-10
     mixing beta               =       0.7000
     number of iterations used =            8  plain     mixing
     Exchange-correlation= SLA  PW   PBX  PBC
                           (   1   4   3   4   0   0   0)

     celldm(1)=  15.551040  celldm(2)=   0.000000  celldm(3)=   0.000000
     celldm(4)=   0.000000  celldm(5)=   0.000000  celldm(6)=   0.000000

     crystal axes: (cart. coord. in units of alat)
               a(1) = (   0.246007  -0.969268   0.000000 )  
               a(2) = (   0.246007   0.969268   0.000000 )  
               a(3) = (   0.000000   0.000000   1.683031 )  

     reciprocal axes: (cart. coord. in units 2 pi/alat)
               b(1) = (  2.032465 -0.515853  0.000000 )  
               b(2) = (  2.032465  0.515853  0.000000 )  
               b(3) = (  0.000000  0.000000  0.594166 )  


     PseudoPot. # 1 for Zr read from file:
     pseudo/Zr.pbe-spn-kjpaw_psl.1.0.0.UPF
     MD5 check sum: 02112c41713a0468aff2bb39ef194e36
     Pseudo is Projector augmented-wave + core cor, Zval = 12.0
     Generated using &quot;atomic&quot; code by A. Dal Corso  v.6.2.2
     Shape of augmentation charge: PSQ
     Using radial grid of 1225 points,  6 beta functions with: 
                l(1) =   0
                l(2) =   0
                l(3) =   1
                l(4) =   1
                l(5) =   2
                l(6) =   2
     Q(r) pseudized with 0 coefficients 


     PseudoPot. # 2 for Te read from file:
     pseudo/Te.pbe-n-kjpaw_psl.1.0.0.UPF
     MD5 check sum: 66247bff2bd9dbf220fbb0bf5ab56e9d
     Pseudo is Projector augmented-wave + core cor, Zval =  6.0
     Generated using &quot;atomic&quot; code by A. Dal Corso  v.6.3
     Shape of augmentation charge: PSQ
     Using radial grid of 1245 points,  6 beta functions with: 
                l(1) =   0
                l(2) =   0
                l(3) =   1
                l(4) =   1
                l(5) =   2
                l(6) =   2
     Q(r) pseudized with 0 coefficients 


     atomic species   valence    mass     pseudopotential
        Zr            12.00    91.22000     Zr( 1.00)
        Te             6.00   127.60000     Te( 1.00)

      8 Sym. Ops., with inversion, found ( 4 have fractional translation)



   Cartesian axes

     site n.     atom                  positions (alat units)
         1           Zr  tau(   1) = (   0.0000000   0.6079989   0.4207578  )
         2           Zr  tau(   2) = (   0.2460067   0.3612693   1.2622733  )
         3           Te  tau(   3) = (   0.2460067   0.3342964   0.4207578  )
         4           Te  tau(   4) = (   0.0000000   0.6349717   1.2622733  )
         5           Te  tau(   5) = (   0.2460067   0.8087372   0.2513203  )
         6           Te  tau(   6) = (   0.0000000   0.1605309   1.4317108  )
         7           Te  tau(   7) = (   0.2460067   0.8087372   0.5901952  )
         8           Te  tau(   8) = (   0.0000000   0.1605309   1.0928358  )
         9           Te  tau(   9) = (   0.0000000   0.4107025   0.7268855  )
        10           Te  tau(  10) = (   0.2460067   0.5585656   0.9561456  )
        11           Te  tau(  11) = (   0.0000000   0.4107025   0.1146301  )
        12           Te  tau(  12) = (   0.2460067   0.5585656   1.5684010  )

     number of k points=    63  Methfessel-Paxton smearing, width (Ry)=  0.0030
                       cart. coord. in units 2pi/alat
        k(    1) = (   0.0000000   0.0000000   0.0000000), wk =   0.0078125
        k(    2) = (   0.0000000   0.0000000   0.1485415), wk =   0.0156250
        k(    3) = (   0.0000000   0.0000000  -0.2970830), wk =   0.0078125
        k(    4) = (   0.2540581   0.0644816   0.0000000), wk =   0.0312500
        k(    5) = (   0.2540581   0.0644816   0.1485415), wk =   0.0625000
        k(    6) = (   0.2540581   0.0644816  -0.2970830), wk =   0.0312500
        k(    7) = (   0.5081162   0.1289633   0.0000000), wk =   0.0312500
        k(    8) = (   0.5081162   0.1289633   0.1485415), wk =   0.0625000
        k(    9) = (   0.5081162   0.1289633  -0.2970830), wk =   0.0312500
        k(   10) = (   0.7621743   0.1934449   0.0000000), wk =   0.0312500
        k(   11) = (   0.7621743   0.1934449   0.1485415), wk =   0.0625000
        k(   12) = (   0.7621743   0.1934449  -0.2970830), wk =   0.0312500
        k(   13) = (  -1.0162324  -0.2579266   0.0000000), wk =   0.0156250
        k(   14) = (  -1.0162324  -0.2579266   0.1485415), wk =   0.0312500
        k(   15) = (  -1.0162324  -0.2579266  -0.2970830), wk =   0.0156250
        k(   16) = (   0.5081162   0.0000000   0.0000000), wk =   0.0156250
        k(   17) = (   0.5081162   0.0000000   0.1485415), wk =   0.0312500
        k(   18) = (   0.5081162   0.0000000  -0.2970830), wk =   0.0156250
        k(   19) = (   0.7621743   0.0644816   0.0000000), wk =   0.0312500
        k(   20) = (   0.7621743   0.0644816   0.1485415), wk =   0.0625000
        k(   21) = (   0.7621743   0.0644816  -0.2970830), wk =   0.0312500
        k(   22) = (   1.0162324   0.1289633   0.0000000), wk =   0.0312500
        k(   23) = (   1.0162324   0.1289633   0.1485415), wk =   0.0625000
        k(   24) = (   1.0162324   0.1289633  -0.2970830), wk =   0.0312500
        k(   25) = (  -0.7621743  -0.3224082   0.0000000), wk =   0.0312500
        k(   26) = (  -0.7621743  -0.3224082   0.1485415), wk =   0.0625000
        k(   27) = (  -0.7621743  -0.3224082  -0.2970830), wk =   0.0312500
        k(   28) = (  -0.5081162  -0.2579266   0.0000000), wk =   0.0312500
        k(   29) = (  -0.5081162  -0.2579266   0.1485415), wk =   0.0625000
        k(   30) = (  -0.5081162  -0.2579266  -0.2970830), wk =   0.0312500
        k(   31) = (  -0.2540581  -0.1934449   0.0000000), wk =   0.0312500
        k(   32) = (  -0.2540581  -0.1934449   0.1485415), wk =   0.0625000
        k(   33) = (  -0.2540581  -0.1934449  -0.2970830), wk =   0.0312500
        k(   34) = (   0.0000000  -0.1289633   0.0000000), wk =   0.0156250
        k(   35) = (   0.0000000  -0.1289633   0.1485415), wk =   0.0312500
        k(   36) = (   0.0000000  -0.1289633  -0.2970830), wk =   0.0156250
        k(   37) = (   1.0162324   0.0000000   0.0000000), wk =   0.0156250
        k(   38) = (   1.0162324   0.0000000   0.1485415), wk =   0.0312500
        k(   39) = (   1.0162324   0.0000000  -0.2970830), wk =   0.0156250
        k(   40) = (   1.2702905   0.0644816   0.0000000), wk =   0.0312500
        k(   41) = (   1.2702905   0.0644816   0.1485415), wk =   0.0625000
        k(   42) = (   1.2702905   0.0644816  -0.2970830), wk =   0.0312500
        k(   43) = (  -0.5081162  -0.3868899   0.0000000), wk =   0.0312500
        k(   44) = (  -0.5081162  -0.3868899   0.1485415), wk =   0.0625000
        k(   45) = (  -0.5081162  -0.3868899  -0.2970830), wk =   0.0312500
        k(   46) = (  -0.2540581  -0.3224082   0.0000000), wk =   0.0312500
        k(   47) = (  -0.2540581  -0.3224082   0.1485415), wk =   0.0625000
        k(   48) = (  -0.2540581  -0.3224082  -0.2970830), wk =   0.0312500
        k(   49) = (   0.0000000  -0.2579266   0.0000000), wk =   0.0156250
        k(   50) = (   0.0000000  -0.2579266   0.1485415), wk =   0.0312500
        k(   51) = (   0.0000000  -0.2579266  -0.2970830), wk =   0.0156250
        k(   52) = (   1.5243485   0.0000000   0.0000000), wk =   0.0156250
        k(   53) = (   1.5243485   0.0000000   0.1485415), wk =   0.0312500
        k(   54) = (   1.5243485   0.0000000  -0.2970830), wk =   0.0156250
        k(   55) = (  -0.2540581  -0.4513715   0.0000000), wk =   0.0312500
        k(   56) = (  -0.2540581  -0.4513715   0.1485415), wk =   0.0625000
        k(   57) = (  -0.2540581  -0.4513715  -0.2970830), wk =   0.0312500
        k(   58) = (   0.0000000  -0.3868899   0.0000000), wk =   0.0156250
        k(   59) = (   0.0000000  -0.3868899   0.1485415), wk =   0.0312500
        k(   60) = (   0.0000000  -0.3868899  -0.2970830), wk =   0.0156250
        k(   61) = (  -2.0324647   0.0000000   0.0000000), wk =   0.0078125
        k(   62) = (  -2.0324647   0.0000000   0.1485415), wk =   0.0156250
        k(   63) = (  -2.0324647   0.0000000  -0.2970830), wk =   0.0078125

     Dense  grid:  1153415 G-vectors     FFT dimensions: ( 144, 144, 240)

     Smooth grid:   291749 G-vectors     FFT dimensions: (  90,  90, 150)

     Estimated max dynamical RAM per process >     657.19 MB

     Estimated total dynamical RAM >       6.42 GB

     Initial potential from superposition of free atoms

     starting charge   83.99353, renormalised to   84.00000
     Starting wfcs are   66 randomized atomic wfcs
     Checking if some PAW data can be deallocated... 

     total cpu time spent up to now is       20.1 secs

     Self-consistent Calculation

     iteration #  1     ecut=    80.00 Ry     beta= 0.70
     Davidson diagonalization with overlap
     ethr =  1.00E-02,  avg # of iterations =  2.0

     Threshold (ethr) on eigenvalues was too large:
     Diagonalizing with lowered threshold

     Davidson diagonalization with overlap
     ethr =  3.98E-04,  avg # of iterations =  4.0

     total cpu time spent up to now is      104.4 secs

     total energy              =   -4240.72953507 Ry
     estimated scf accuracy    <       0.43025818 Ry

     iteration #  2     ecut=    80.00 Ry     beta= 0.70
     Davidson diagonalization with overlap
     ethr =  5.12E-04,  avg # of iterations =  7.7

     total cpu time spent up to now is      165.0 secs

     total energy              =   -4240.63503389 Ry
     estimated scf accuracy    <       2.10700345 Ry

     iteration #  3     ecut=    80.00 Ry     beta= 0.70
     Davidson diagonalization with overlap
     ethr =  5.12E-04,  avg # of iterations =  5.3

     total cpu time spent up to now is      216.5 secs

     total energy              =   -4240.93161754 Ry
     estimated scf accuracy    <       0.01408548 Ry

     iteration #  4     ecut=    80.00 Ry     beta= 0.70
     Davidson diagonalization with overlap
     c_bands:  1 eigenvalues not converged
     c_bands:  1 eigenvalues not converged
     c_bands:  2 eigenvalues not converged
     c_bands:  1 eigenvalues not converged
     c_bands:  1 eigenvalues not converged
     c_bands:  2 eigenvalues not converged
     c_bands:  1 eigenvalues not converged
     c_bands:  1 eigenvalues not converged
     c_bands:  1 eigenvalues not converged
     c_bands:  1 eigenvalues not converged
     c_bands:  1 eigenvalues not converged
     c_bands:  2 eigenvalues not converged
     ethr =  1.68E-05,  avg # of iterations = 17.1

     total cpu time spent up to now is      313.4 secs

     WARNING: integrated charge=    83.99783893, expected=    84.00000000

     total energy              =   -4240.95000471 Ry
     estimated scf accuracy    <       0.08504751 Ry

     iteration #  5     ecut=    80.00 Ry     beta= 0.70
     Davidson diagonalization with overlap
     ethr =  1.68E-05,  avg # of iterations =  6.5

     total cpu time spent up to now is      363.1 secs

     WARNING: integrated charge=    83.99944063, expected=    84.00000000

     total energy              =   -4240.94836592 Ry
     estimated scf accuracy    <       0.01736134 Ry

     iteration #  6     ecut=    80.00 Ry     beta= 0.70
     Davidson diagonalization with overlap
     ethr =  1.68E-05,  avg # of iterations =  3.4

     total cpu time spent up to now is      404.2 secs

     WARNING: integrated charge=    84.00022979, expected=    84.00000000

     total energy              =   -4240.94978528 Ry
     estimated scf accuracy    <       0.00169160 Ry

     iteration #  7     ecut=    80.00 Ry     beta= 0.70
     Davidson diagonalization with overlap
     c_bands:  1 eigenvalues not converged
     c_bands:  1 eigenvalues not converged
     c_bands:  1 eigenvalues not converged
     c_bands:  1 eigenvalues not converged
     c_bands:  1 eigenvalues not converged
     c_bands:  1 eigenvalues not converged
     c_bands:  1 eigenvalues not converged
     c_bands:  1 eigenvalues not converged
     c_bands:  1 eigenvalues not converged
     c_bands:  1 eigenvalues not converged
     ethr =  2.01E-06,  avg # of iterations = 15.1

     total cpu time spent up to now is      481.1 secs

     WARNING: integrated charge=    83.99972814, expected=    84.00000000

     total energy              =   -4240.95077557 Ry
     estimated scf accuracy    <       0.00227898 Ry

     iteration #  8     ecut=    80.00 Ry     beta= 0.70
     Davidson diagonalization with overlap
     ethr =  2.01E-06,  avg # of iterations =  3.2

     total cpu time spent up to now is      520.2 secs

     WARNING: integrated charge=    83.99968717, expected=    84.00000000

     total energy              =   -4240.95081137 Ry
     estimated scf accuracy    <       0.00039551 Ry

     iteration #  9     ecut=    80.00 Ry     beta= 0.70
     Davidson diagonalization with overlap
     ethr =  4.71E-07,  avg # of iterations =  6.5

     total cpu time spent up to now is      569.0 secs

     WARNING: integrated charge=    83.99986296, expected=    84.00000000

     total energy              =   -4240.95091646 Ry
     estimated scf accuracy    <       0.00000995 Ry

     iteration # 10     ecut=    80.00 Ry     beta= 0.70
     Davidson diagonalization with overlap
     ethr =  1.18E-08,  avg # of iterations =  8.6

     total cpu time spent up to now is      632.0 secs

     WARNING: integrated charge=    83.99998040, expected=    84.00000000

     total energy              =   -4240.95092581 Ry
     estimated scf accuracy    <       0.00001436 Ry

     iteration # 11     ecut=    80.00 Ry     beta= 0.70
     Davidson diagonalization with overlap
     ethr =  1.18E-08,  avg # of iterations =  3.8

     total cpu time spent up to now is      674.2 secs

     total energy              =   -4240.95092803 Ry
     estimated scf accuracy    <       0.00000012 Ry

     iteration # 12     ecut=    80.00 Ry     beta= 0.70
     Davidson diagonalization with overlap
     ethr =  1.46E-10,  avg # of iterations = 10.3

     total cpu time spent up to now is      749.6 secs

     total energy              =   -4240.95092828 Ry
     estimated scf accuracy    <       0.00000027 Ry

     iteration # 13     ecut=    80.00 Ry     beta= 0.70
     Davidson diagonalization with overlap
     ethr =  1.46E-10,  avg # of iterations =  2.7

     total cpu time spent up to now is      789.6 secs

     total energy              =   -4240.95092830 Ry
     estimated scf accuracy    <       0.00000002 Ry

     iteration # 14     ecut=    80.00 Ry     beta= 0.70
     Davidson diagonalization with overlap
     ethr =  1.91E-11,  avg # of iterations =  8.6

     total cpu time spent up to now is      851.8 secs

     total energy              =   -4240.95092831 Ry
     estimated scf accuracy    <       0.00000003 Ry

     iteration # 15     ecut=    80.00 Ry     beta= 0.70
     Davidson diagonalization with overlap
     ethr =  1.91E-11,  avg # of iterations =  2.1

     total cpu time spent up to now is      888.0 secs

     total energy              =   -4240.95092831 Ry
     estimated scf accuracy    <          5.7E-09 Ry

     iteration # 16     ecut=    80.00 Ry     beta= 0.70
     Davidson diagonalization with overlap
     ethr =  6.77E-12,  avg # of iterations =  5.8

     total cpu time spent up to now is      931.6 secs

     End of self-consistent calculation

          k = 0.0000 0.0000 0.0000 ( 36359 PWs)   bands (ev):

   -44.1399 -44.1398 -22.2728 -22.2728 -22.1757 -22.1757 -22.0658 -22.0657
    -7.7506  -7.2729  -7.1400  -6.8209  -6.4108  -5.3849  -5.0145  -4.8667
    -4.8140  -3.8509   0.3885   0.7354   0.7524   1.0953   1.5162   1.5166
     2.3684   2.3935   2.6941   2.8015   2.9791   3.0138   3.1867   3.4634
     3.6356   3.7200   3.9164   4.0574   4.1905   4.3232   4.3304   4.6497
     4.9550   5.5309   5.6178   5.7384   5.8382   5.9826   6.2656   6.8314
     6.9583   7.2757

          k = 0.0000 0.0000 0.1485 ( 36415 PWs)   bands (ev):

   -44.1399 -44.1399 -22.2728 -22.2728 -22.1757 -22.1757 -22.0658 -22.0657
    -7.7128  -7.4313  -6.9995  -6.8351  -6.3228  -5.6866  -4.8748  -4.8238
    -4.6819  -3.9679   0.4451   0.7723   0.9055   1.0327   1.0614   1.9569
     2.0857   2.3972   2.5992   2.8714   2.9690   3.1209   3.3736   3.3851
     3.6798   3.7942   3.9031   4.0548   4.1348   4.3425   4.3465   4.6572
     4.8300   5.0266   5.7707   5.9685   5.9831   5.9965   6.6023   6.6229
     6.7849   7.2301

          k = 0.0000 0.0000-0.2971 ( 36410 PWs)   bands (ev):

   -44.1399 -44.1399 -22.2728 -22.2728 -22.1757 -22.1757 -22.0657 -22.0657
    -7.6024  -7.6024  -6.8857  -6.8857  -6.0614  -6.0614  -4.8476  -4.8476
    -4.2764  -4.2764   0.6488   0.6488   0.8965   0.8965   1.3889   1.3889
     2.4793   2.4793   2.6683   2.6683   2.9358   2.9358   3.4447   3.4447
     3.8671   3.8671   3.9721   3.9721   4.3387   4.3387   4.4006   4.4006
     4.7004   4.7004   5.9538   5.9538   6.2226   6.2226   6.3945   6.3945
     7.0725   7.0725

          k = 0.2541 0.0645 0.0000 ( 36396 PWs)   bands (ev):

   -44.1395 -44.1395 -22.2709 -22.2709 -22.1856 -22.1856 -22.0646 -22.0645
    -7.6350  -7.1647  -7.0650  -6.7739  -6.3490  -5.3432  -5.0181  -4.8246
    -4.7711  -3.9959   0.4752   0.8670   0.8838   1.2135   1.3585   1.3762
     1.8902   1.9250   2.1485   2.5499   2.5827   3.0982   3.3775   3.7014
     3.7229   3.7595   3.7738   3.7958   4.0116   4.2384   4.2505   4.2583
     4.4791   4.6266   5.7629   5.9807   6.2456   6.5608   6.6155   6.8113
     7.0057   7.1560

          k = 0.2541 0.0645 0.1485 ( 36423 PWs)   bands (ev):

   -44.1395 -44.1395 -22.2709 -22.2709 -22.1856 -22.1856 -22.0646 -22.0645
    -7.5981  -7.3238  -6.9307  -6.7866  -6.2569  -5.6321  -4.8522  -4.7829
    -4.6910  -4.0896   0.5194   0.9057   0.9621   0.9764   1.1649   1.5207
     1.8187   2.2476   2.3411   2.5338   2.5609   2.9377   3.3015   3.3230
     3.6009   3.7291   3.9011   3.9149   4.0160   4.1242   4.2784   4.3133
     4.6834   4.9353   5.8233   5.8813   6.1919   6.2686   6.4478   6.7104
     7.2391   7.3079

          k = 0.2541 0.0645-0.2971 ( 36436 PWs)   bands (ev):

   -44.1395 -44.1395 -22.2709 -22.2709 -22.1856 -22.1856 -22.0645 -22.0645
    -7.4904  -7.4904  -6.8309  -6.8309  -5.9949  -5.9949  -4.8120  -4.8120
    -4.3454  -4.3454   0.6803   0.6803   1.0054   1.0054   1.2217   1.2217
     2.2586   2.2586   2.4875   2.4875   2.6764   2.6764   3.1471   3.1471
     3.6135   3.6135   3.9063   3.9063   4.0765   4.0765   4.3153   4.3153
     5.0949   5.0949   5.7631   5.7631   6.1196   6.1196   6.4491   6.4491
     7.4276   7.4276

          k = 0.5081 0.1290 0.0000 ( 36499 PWs)   bands (ev):

   -44.1386 -44.1386 -22.2662 -22.2662 -22.2092 -22.2092 -22.0617 -22.0616
    -7.3077  -6.8885  -6.8512  -6.6466  -6.1547  -5.2556  -5.0869  -4.7146
    -4.6652  -4.4315   0.5557   0.5721   0.6772   1.2160   1.2402   1.4957
     1.6813   1.7311   2.0447   2.0790   2.1665   2.2560   2.3671   3.3319
     3.4129   3.4798   3.4956   3.5895   3.7696   3.8949   3.9037   4.1650
     4.4968   5.1685   5.4906   5.9973   6.0071   6.5697   6.5842   6.9035
     7.4268   7.5658

          k = 0.5081 0.1290 0.1485 ( 36476 PWs)   bands (ev):

   -44.1386 -44.1386 -22.2662 -22.2662 -22.2092 -22.2092 -22.0617 -22.0616
    -7.2741  -7.0317  -6.7482  -6.6557  -6.0575  -5.5009  -4.9050  -4.6937
    -4.6704  -4.4625   0.4913   0.6876   0.7900   1.0448   1.2487   1.4116
     1.4763   1.5882   2.0258   2.0894   2.3295   2.4920   2.7992   3.3550
     3.4103   3.4274   3.5080   3.5814   3.6802   3.7494   3.8466   4.2228
     4.3457   4.5383   6.0909   6.1450   6.2655   6.5729   6.6264   6.7707
     7.2651   7.4975

          k = 0.5081 0.1290-0.2971 ( 36466 PWs)   bands (ev):

   -44.1386 -44.1386 -22.2662 -22.2662 -22.2092 -22.2092 -22.0616 -22.0616
    -7.1773  -7.1773  -6.6854  -6.6854  -5.8114  -5.8114  -4.7677  -4.7677
    -4.5567  -4.5567   0.5773   0.5773   1.0603   1.0603   1.1643   1.1643
     1.3952   1.3952   2.0580   2.0580   2.7334   2.7334   3.1420   3.1420
     3.3838   3.3838   3.5512   3.5512   3.7018   3.7018   3.8237   3.8237
     4.3057   4.3057   6.3311   6.3311   6.5489   6.5489   6.8058   6.8058
     7.1137   7.1137

          k = 0.7622 0.1934 0.0000 ( 36521 PWs)   bands (ev):

   -44.1377 -44.1377 -22.2614 -22.2614 -22.2329 -22.2329 -22.0588 -22.0587
    -6.8836  -6.7295  -6.4145  -6.3733  -5.8377  -5.3452  -5.2407  -5.0853
    -4.5916  -4.5560   0.0128   0.1408   0.5894   1.0653   1.0916   1.2544
     1.4785   1.6001   1.9415   2.0203   2.2606   2.4082   2.4199   2.7744
     2.8410   3.2628   3.3237   3.4108   3.6262   3.6915   3.7233   3.7862
     3.8981   4.5632   5.8323   6.2568   6.3240   6.7866   6.7945   6.8947
     7.2629   7.5970

          k = 0.7622 0.1934 0.1485 ( 36503 PWs)   bands (ev):

   -44.1377 -44.1377 -22.2614 -22.2614 -22.2329 -22.2329 -22.0588 -22.0587
    -6.8630  -6.7535  -6.4155  -6.3912  -5.7621  -5.4317  -5.2000  -5.1024
    -4.5821  -4.5577   0.0567   0.2743   0.4603   0.9374   1.0683   1.2184
     1.4928   1.6406   1.8257   2.0708   2.1351   2.6315   2.6923   2.8156
     2.8770   3.1114   3.2717   3.3897   3.5178   3.6195   3.6552   3.9226
     3.9778   4.6004   5.5556   6.3043   6.6080   6.6813   6.8442   6.9467
     7.0392   7.5347

          k = 0.7622 0.1934-0.2971 ( 36522 PWs)   bands (ev):

   -44.1377 -44.1377 -22.2614 -22.2614 -22.2329 -22.2329 -22.0587 -22.0587
    -6.8102  -6.8102  -6.4113  -6.4113  -5.5971  -5.5971  -5.1457  -5.1457
    -4.5662  -4.5662   0.2177   0.2177   0.6122   0.6122   1.0786   1.0786
     1.5708   1.5708   2.0062   2.0062   2.3684   2.3684   2.8063   2.8063
     2.9942   2.9942   3.3517   3.3517   3.5872   3.5872   3.8437   3.8437
     4.1287   4.1287   6.0699   6.0699   6.4146   6.4146   6.9243   6.9243
     7.3758   7.3758

          k =-1.0162-0.2579 0.0000 ( 36506 PWs)   bands (ev):

   -44.1373 -44.1373 -22.2592 -22.2592 -22.2428 -22.2428 -22.0575 -22.0575
    -6.7014  -6.6814  -5.8949  -5.8838  -5.8247  -5.8156  -5.4098  -5.4091
    -4.5345  -4.5115   0.0283   0.0524   0.3621   0.3829   1.0118   1.0210
     1.4673   1.6716   2.2344   2.3798   2.3862   2.3896   2.7903   2.8090
     2.8155   2.8742   3.2347   3.2624   3.3113   3.4453   3.5449   3.7062
     3.7588   4.0189   6.4680   6.4931   6.5225   6.6036   6.9859   7.0733
     7.0826   7.0924

          k =-1.0162-0.2579 0.1485 ( 36506 PWs)   bands (ev):

   -44.1373 -44.1373 -22.2592 -22.2592 -22.2428 -22.2428 -22.0575 -22.0575
    -6.6978  -6.6836  -5.9121  -5.9037  -5.8070  -5.8012  -5.4044  -5.4041
    -4.5353  -4.5191  -0.0669  -0.0593   0.5864   0.5929   1.0158   1.0368
     1.4643   1.5912   1.9558   2.0452   2.3765   2.3932   2.7228   2.7231
     2.9438   3.0073   3.1311   3.1997   3.5533   3.5702   3.6884   3.7487
     4.0465   4.1185   5.9442   5.9574   6.4459   6.5207   7.0270   7.0579
     7.2840   7.3216

          k =-1.0162-0.2579-0.2971 ( 36528 PWs)   bands (ev):

   -44.1373 -44.1373 -22.2592 -22.2592 -22.2428 -22.2428 -22.0575 -22.0575
    -6.6899  -6.6899  -5.9220  -5.9220  -5.7927  -5.7927  -5.3990  -5.3990
    -4.5314  -4.5314  -0.1257  -0.1257   0.8857   0.8857   0.9394   0.9394
     1.5447   1.5447   1.6726   1.6726   2.3764   2.3764   2.7742   2.7742
     2.9234   2.9234   3.1679   3.1679   3.6224   3.6224   3.7942   3.7942
     4.4497   4.4497   5.4495   5.4495   6.4042   6.4042   7.0659   7.0659
     7.3721   7.3721

          k = 0.5081 0.0000 0.0000 ( 36503 PWs)   bands (ev):

   -44.1386 -44.1386 -22.2662 -22.2662 -22.2092 -22.2092 -22.0617 -22.0616
    -7.3126  -6.8899  -6.8521  -6.6411  -6.1507  -5.2561  -5.0837  -4.7097
    -4.6713  -4.4311   0.5619   0.5741   0.6702   1.1891   1.2352   1.4736
     1.6833   1.7349   2.0309   2.1107   2.1217   2.2537   2.3639   3.3179
     3.4369   3.4473   3.5545   3.5972   3.7757   3.8805   3.9529   4.2021
     4.4989   5.1664   5.4963   5.9788   6.0400   6.5303   6.5331   6.9389
     7.4474   7.5771

          k = 0.5081 0.0000 0.1485 ( 36453 PWs)   bands (ev):

   -44.1386 -44.1386 -22.2662 -22.2662 -22.2092 -22.2092 -22.0617 -22.0616
    -7.2790  -7.0352  -6.7455  -6.6503  -6.0552  -5.5012  -4.8999  -4.6956
    -4.6704  -4.4635   0.4917   0.6828   0.7927   1.0468   1.2280   1.4231
     1.4383   1.5758   2.0219   2.0967   2.3418   2.4565   2.7935   3.3440
     3.4175   3.4593   3.4995   3.5890   3.6753   3.8164   3.8389   4.2600
     4.3595   4.5347   6.0872   6.1569   6.2796   6.5232   6.5902   6.8022
     7.2881   7.5042

          k = 0.5081 0.0000-0.2971 ( 36452 PWs)   bands (ev):

   -44.1386 -44.1386 -22.2662 -22.2662 -22.2092 -22.2092 -22.0616 -22.0616
    -7.1818  -7.1818  -6.6805  -6.6805  -5.8111  -5.8111  -4.7637  -4.7637
    -4.5596  -4.5596   0.5738   0.5738   1.0604   1.0604   1.1797   1.1797
     1.3537   1.3537   2.0593   2.0593   2.7245   2.7245   3.1266   3.1266
     3.3814   3.3814   3.5813   3.5813   3.7246   3.7246   3.8252   3.8252
     4.3278   4.3278   6.3469   6.3469   6.5132   6.5132   6.8223   6.8223
     7.1151   7.1151

          k = 0.7622 0.0645 0.0000 ( 36505 PWs)   bands (ev):

   -44.1377 -44.1377 -22.2614 -22.2614 -22.2329 -22.2329 -22.0588 -22.0587
    -6.8927  -6.7274  -6.4059  -6.3751  -5.8373  -5.3414  -5.2414  -5.0847
    -4.5833  -4.5654   0.0080   0.1517   0.6088   1.0794   1.0971   1.2687
     1.4391   1.5600   1.9159   2.0368   2.2528   2.3585   2.4017   2.7478
     2.8283   3.3151   3.3482   3.4313   3.6207   3.6423   3.7468   3.8266
     3.9158   4.6012   5.8302   6.2645   6.2993   6.7571   6.8520   6.8524
     7.2818   7.6067

          k = 0.7622 0.0645 0.1485 ( 36509 PWs)   bands (ev):

   -44.1377 -44.1377 -22.2614 -22.2614 -22.2329 -22.2329 -22.0588 -22.0587
    -6.8713  -6.7543  -6.4069  -6.3896  -5.7626  -5.4312  -5.1982  -5.1015
    -4.5764  -4.5644   0.0580   0.2780   0.4698   0.9481   1.0752   1.2340
     1.4581   1.6407   1.8520   1.9985   2.0650   2.6517   2.6743   2.7962
     2.8613   3.1134   3.3319   3.4017   3.4997   3.6276   3.6693   3.9425
     4.0147   4.5985   5.5816   6.2850   6.6164   6.6782   6.8602   6.9433
     7.0153   7.5537

          k = 0.7622 0.0645-0.2971 ( 36472 PWs)   bands (ev):

   -44.1377 -44.1377 -22.2614 -22.2614 -22.2329 -22.2329 -22.0587 -22.0587
    -6.8158  -6.8158  -6.4046  -6.4046  -5.5981  -5.5981  -5.1439  -5.1439
    -4.5666  -4.5666   0.2237   0.2237   0.6064   0.6064   1.1026   1.1026
     1.5643   1.5643   1.9575   1.9575   2.3383   2.3383   2.8054   2.8054
     2.9840   2.9840   3.4141   3.4141   3.5840   3.5840   3.8314   3.8314
     4.1508   4.1508   6.0949   6.0949   6.4156   6.4156   6.8909   6.8909
     7.4029   7.4029

          k = 1.0162 0.1290 0.0000 ( 36514 PWs)   bands (ev):

   -44.1373 -44.1373 -22.2592 -22.2592 -22.2428 -22.2428 -22.0575 -22.0575
    -6.7015  -6.6814  -5.8946  -5.8841  -5.8248  -5.8156  -5.4098  -5.4091
    -4.5345  -4.5115   0.0224   0.0584   0.3573   0.3879   1.0060   1.0281
     1.4728   1.6627   2.2353   2.3750   2.3764   2.3940   2.7878   2.8064
     2.8326   2.8827   3.2439   3.2504   3.3060   3.4358   3.5738   3.6924
     3.7399   4.0314   6.4597   6.5022   6.5176   6.6096   7.0012   7.0750
     7.0828   7.0847

          k = 1.0162 0.1290 0.1485 ( 36524 PWs)   bands (ev):

   -44.1373 -44.1373 -22.2592 -22.2592 -22.2428 -22.2428 -22.0575 -22.0575
    -6.6978  -6.6836  -5.9120  -5.9039  -5.8070  -5.8013  -5.4046  -5.4040
    -4.5353  -4.5191  -0.0691  -0.0575   0.5872   0.5927   1.0191   1.0342
     1.4692   1.5867   1.9670   2.0299   2.3732   2.3884   2.6782   2.7751
     2.9596   3.0201   3.1139   3.1950   3.5323   3.6072   3.6813   3.7342
     4.0299   4.1380   5.9352   5.9693   6.4429   6.5233   7.0334   7.0566
     7.2896   7.3164

          k = 1.0162 0.1290-0.2971 ( 36516 PWs)   bands (ev):

   -44.1373 -44.1373 -22.2592 -22.2592 -22.2428 -22.2428 -22.0575 -22.0575
    -6.6899  -6.6899  -5.9220  -5.9220  -5.7927  -5.7927  -5.3990  -5.3990
    -4.5314  -4.5314  -0.1259  -0.1259   0.8857   0.8857   0.9401   0.9401
     1.5453   1.5453   1.6735   1.6735   2.3668   2.3668   2.7586   2.7586
     2.9728   2.9728   3.1414   3.1414   3.6270   3.6270   3.7890   3.7890
     4.4501   4.4501   5.4517   5.4517   6.4037   6.4037   7.0678   7.0678
     7.3725   7.3725

          k =-0.7622-0.3224 0.0000 ( 36511 PWs)   bands (ev):

   -44.1377 -44.1377 -22.2614 -22.2614 -22.2329 -22.2329 -22.0588 -22.0587
    -6.8695  -6.7337  -6.4268  -6.3706  -5.8384  -5.3505  -5.2396  -5.0861
    -4.5983  -4.5478   0.0197   0.1259   0.5628   1.0355   1.1086   1.2363
     1.5014   1.6643   1.9948   1.9992   2.2999   2.4389   2.4458   2.8111
     2.8557   3.1939   3.3035   3.4215   3.5849   3.6606   3.7059   3.8327
     3.8577   4.5002   5.8355   6.2464   6.3680   6.7124   6.8319   6.9611
     7.2282   7.5873

          k =-0.7622-0.3224 0.1485 ( 36492 PWs)   bands (ev):

   -44.1377 -44.1377 -22.2614 -22.2614 -22.2329 -22.2329 -22.0588 -22.0587
    -6.8502  -6.7530  -6.4276  -6.3939  -5.7613  -5.4324  -5.2025  -5.1037
    -4.5867  -4.5520   0.0540   0.2709   0.4462   0.9194   1.0715   1.1971
     1.5341   1.6396   1.8063   2.1766   2.2255   2.6137   2.7007   2.8388
     2.8936   3.1304   3.1957   3.3757   3.4784   3.6156   3.6723   3.8840
     3.9266   4.6018   5.5209   6.3354   6.5832   6.6829   6.8204   6.9834
     7.0668   7.4999

          k =-0.7622-0.3224-0.2971 ( 36508 PWs)   bands (ev):

   -44.1377 -44.1377 -22.2614 -22.2614 -22.2329 -22.2329 -22.0587 -22.0587
    -6.8019  -6.8019  -6.4210  -6.4210  -5.5956  -5.5956  -5.1483  -5.1483
    -4.5658  -4.5658   0.2093   0.2093   0.6202   0.6202   1.0506   1.0506
     1.5786   1.5786   2.0606   2.0606   2.4306   2.4306   2.8092   2.8092
     3.0086   3.0086   3.2635   3.2635   3.5876   3.5876   3.8482   3.8482
     4.1036   4.1036   6.0372   6.0372   6.4117   6.4117   6.9800   6.9800
     7.3298   7.3298

          k =-0.5081-0.2579 0.0000 ( 36480 PWs)   bands (ev):

   -44.1386 -44.1386 -22.2662 -22.2662 -22.2092 -22.2092 -22.0617 -22.0616
    -7.2953  -6.8857  -6.8492  -6.6595  -6.1644  -5.2544  -5.0945  -4.7223
    -4.6547  -4.4326   0.5415   0.5725   0.6841   1.2516   1.2958   1.5485
     1.6801   1.7249   2.0491   2.0803   2.2084   2.2710   2.3717   3.3633
     3.3756   3.4136   3.5155   3.5253   3.7425   3.8256   3.9074   4.0901
     4.4881   5.1714   5.4790   5.9123   6.0597   6.6689   6.7048   6.8189
     7.3665   7.5410

          k =-0.5081-0.2579 0.1485 ( 36485 PWs)   bands (ev):

   -44.1386 -44.1386 -22.2662 -22.2662 -22.2092 -22.2092 -22.0617 -22.0616
    -7.2620  -7.0230  -6.7554  -6.6688  -6.0631  -5.5002  -4.9169  -4.6902
    -4.6700  -4.4603   0.4907   0.6968   0.7824   1.0405   1.3047   1.4088
     1.5439   1.6261   2.0294   2.0786   2.3155   2.5556   2.8125   3.3271
     3.3810   3.4177   3.5157   3.5408   3.6342   3.7098   3.8353   4.1459
     4.3040   4.5445   6.0761   6.1329   6.2399   6.6756   6.7041   6.7275
     7.2043   7.4840

          k =-0.5081-0.2579-0.2971 ( 36478 PWs)   bands (ev):

   -44.1386 -44.1386 -22.2662 -22.2662 -22.2092 -22.2092 -22.0616 -22.0616
    -7.1661  -7.1661  -6.6978  -6.6978  -5.8122  -5.8122  -4.7772  -4.7772
    -4.5503  -4.5503   0.5853   0.5853   1.0597   1.0597   1.1399   1.1399
     1.4911   1.4911   2.0518   2.0518   2.7587   2.7587   3.1746   3.1746
     3.3792   3.3792   3.4564   3.4564   3.6866   3.6866   3.8137   3.8137
     4.2520   4.2520   6.2935   6.2935   6.6248   6.6248   6.7716   6.7716
     7.1167   7.1167

          k =-0.2541-0.1934 0.0000 ( 36410 PWs)   bands (ev):

   -44.1395 -44.1395 -22.2709 -22.2709 -22.1856 -22.1856 -22.0646 -22.0645
    -7.6264  -7.1632  -7.0578  -6.7838  -6.3631  -5.3435  -5.0256  -4.8325
    -4.7603  -3.9969   0.5027   0.8920   0.9382   1.2410   1.3745   1.3915
     1.9142   1.9468   2.1504   2.5163   2.5699   3.1638   3.3297   3.6210
     3.6530   3.7165   3.7614   3.8589   3.8839   4.2064   4.2161   4.2429
     4.4019   4.6198   5.8159   6.0036   6.3028   6.6006   6.6189   6.8237
     6.9935   7.0766

          k =-0.2541-0.1934 0.1485 ( 36427 PWs)   bands (ev):

   -44.1395 -44.1395 -22.2709 -22.2709 -22.1856 -22.1856 -22.0646 -22.0645
    -7.5896  -7.3173  -6.9322  -6.7962  -6.2669  -5.6329  -4.8704  -4.7769
    -4.6843  -4.0895   0.5435   0.9426   0.9774   1.0311   1.1965   1.5362
     1.8232   2.2504   2.3654   2.5176   2.5443   2.9208   3.3172   3.3635
     3.5876   3.6360   3.7555   3.8945   3.9752   4.1039   4.2379   4.2605
     4.6749   4.9239   5.8073   5.9032   6.1768   6.3326   6.5201   6.7150
     7.1974   7.2982

          k =-0.2541-0.1934-0.2971 ( 36422 PWs)   bands (ev):

   -44.1395 -44.1395 -22.2709 -22.2709 -22.1856 -22.1856 -22.0645 -22.0645
    -7.4824  -7.4824  -6.8387  -6.8387  -5.9986  -5.9986  -4.8173  -4.8173
    -4.3427  -4.3427   0.6986   0.6986   1.0691   1.0691   1.2301   1.2301
     2.2590   2.2590   2.4776   2.4776   2.6751   2.6751   3.1710   3.1710
     3.5705   3.5705   3.8116   3.8116   4.0612   4.0612   4.2605   4.2605
     5.1005   5.1005   5.7231   5.7231   6.1211   6.1211   6.5320   6.5320
     7.4046   7.4046

          k = 0.0000-0.1290 0.0000 ( 36417 PWs)   bands (ev):

   -44.1399 -44.1399 -22.2728 -22.2728 -22.1757 -22.1757 -22.0658 -22.0657
    -7.7461  -7.2721  -7.1352  -6.8263  -6.4196  -5.3855  -5.0186  -4.8726
    -4.8065  -3.8515   0.4096   0.7573   0.7769   1.1031   1.5276   1.5426
     2.3705   2.3944   2.7012   2.8003   2.9776   3.0200   3.2245   3.4432
     3.5781   3.7091   3.8117   4.0140   4.1906   4.2696   4.2814   4.6498
     4.9452   5.4919   5.6429   5.7458   5.8552   6.0292   6.3159   6.8146
     6.9587   7.2508

          k = 0.0000-0.1290 0.1485 ( 36419 PWs)   bands (ev):

   -44.1399 -44.1399 -22.2728 -22.2728 -22.1757 -22.1757 -22.0658 -22.0657
    -7.7083  -7.4278  -6.9994  -6.8402  -6.3294  -5.6875  -4.8856  -4.8195
    -4.6786  -3.9680   0.4644   0.8142   0.9172   1.0332   1.0832   1.9638
     2.1020   2.3994   2.6033   2.8721   2.9679   3.1352   3.3449   3.3858
     3.6720   3.7845   3.8052   3.9883   4.1326   4.2917   4.3009   4.6573
     4.8246   5.0160   5.7811   5.9729   6.0009   6.0276   6.6100   6.6346
     6.7858   7.2156

          k = 0.0000-0.1290-0.2971 ( 36464 PWs)   bands (ev):

   -44.1399 -44.1399 -22.2728 -22.2728 -22.1757 -22.1757 -22.0657 -22.0657
    -7.5982  -7.5982  -6.8894  -6.8894  -6.0642  -6.0642  -4.8503  -4.8503
    -4.2752  -4.2752   0.6712   0.6712   0.9185   0.9185   1.3969   1.3969
     2.4822   2.4822   2.6790   2.6790   2.9357   2.9357   3.4229   3.4229
     3.8207   3.8207   3.9655   3.9655   4.2464   4.2464   4.4169   4.4169
     4.6992   4.6992   5.9563   5.9563   6.2430   6.2430   6.3966   6.3966
     7.0728   7.0728

          k = 1.0162 0.0000 0.0000 ( 36499 PWs)   bands (ev):

   -44.1373 -44.1373 -22.2592 -22.2592 -22.2428 -22.2428 -22.0575 -22.0575
    -6.7015  -6.6814  -5.8942  -5.8844  -5.8248  -5.8156  -5.4099  -5.4091
    -4.5345  -4.5115   0.0180   0.0629   0.3537   0.3916   1.0029   1.0326
     1.4791   1.6530   2.2360   2.3651   2.3743   2.3971   2.7855   2.8037
     2.8447   2.8949   3.2434   3.2692   3.2823   3.4223   3.6132   3.6804
     3.7112   4.0430   6.4540   6.5086   6.5132   6.6152   7.0228   7.0670
     7.0767   7.0869

          k = 1.0162 0.0000 0.1485 ( 36485 PWs)   bands (ev):

   -44.1373 -44.1373 -22.2592 -22.2592 -22.2428 -22.2428 -22.0575 -22.0575
    -6.6978  -6.6835  -5.9118  -5.9041  -5.8069  -5.8013  -5.4047  -5.4039
    -4.5353  -4.5191  -0.0707  -0.0562   0.5881   0.5925   1.0258   1.0281
     1.4747   1.5817   1.9958   1.9970   2.3734   2.3805   2.6635   2.7934
     2.9809   3.0593   3.0674   3.1911   3.5246   3.6340   3.6791   3.7117
     4.0182   4.1526   5.9306   5.9769   6.4402   6.5257   7.0417   7.0534
     7.3006   7.3058

          k = 1.0162 0.0000-0.2971 ( 36514 PWs)   bands (ev):

   -44.1373 -44.1373 -22.2592 -22.2592 -22.2428 -22.2428 -22.0575 -22.0575
    -6.6899  -6.6899  -5.9219  -5.9219  -5.7927  -5.7927  -5.3990  -5.3990
    -4.5314  -4.5314  -0.1260  -0.1260   0.8856   0.8856   0.9409   0.9409
     1.5458   1.5458   1.6744   1.6744   2.3575   2.3575   2.7476   2.7476
     3.0456   3.0456   3.0867   3.0867   3.6318   3.6318   3.7836   3.7836
     4.4505   4.4505   5.4538   5.4538   6.4032   6.4032   7.0697   7.0697
     7.3729   7.3729

          k = 1.2703 0.0645 0.0000 ( 36468 PWs)   bands (ev):

   -44.1377 -44.1377 -22.2614 -22.2614 -22.2329 -22.2329 -22.0588 -22.0587
    -6.8582  -6.7378  -6.4356  -6.3687  -5.8388  -5.3543  -5.2388  -5.0866
    -4.6018  -4.5433   0.0247   0.1157   0.5445   1.0211   1.1206   1.2239
     1.5059   1.7102   1.9855   2.0471   2.3421   2.4338   2.4644   2.8386
     2.8611   3.1357   3.3234   3.4759   3.5322   3.5635   3.7090   3.8136
     3.9073   4.4449   5.8378   6.2432   6.4025   6.6536   6.8670   7.0185
     7.1926   7.5899

          k = 1.2703 0.0645 0.1485 ( 36490 PWs)   bands (ev):

   -44.1377 -44.1377 -22.2614 -22.2614 -22.2329 -22.2329 -22.0588 -22.0587
    -6.8400  -6.7536  -6.4362  -6.3959  -5.7608  -5.4330  -5.2042  -5.1046
    -4.5890  -4.5488   0.0516   0.2696   0.4355   0.9065   1.0791   1.1823
     1.5606   1.6375   1.7985   2.2537   2.2948   2.5986   2.7006   2.8497
     2.9065   3.1343   3.1689   3.3691   3.4377   3.5674   3.7487   3.8221
     3.8974   4.6016   5.4978   6.3624   6.5533   6.6833   6.8103   7.0251
     7.0818   7.4690

          k = 1.2703 0.0645-0.2971 ( 36480 PWs)   bands (ev):

   -44.1377 -44.1377 -22.2614 -22.2614 -22.2329 -22.2329 -22.0587 -22.0587
    -6.7958  -6.7958  -6.4281  -6.4281  -5.5946  -5.5946  -5.1501  -5.1501
    -4.5655  -4.5655   0.2033   0.2033   0.6256   0.6256   1.0341   1.0341
     1.5839   1.5839   2.0877   2.0877   2.4919   2.4919   2.8176   2.8176
     3.0165   3.0165   3.1929   3.1929   3.5875   3.5875   3.8412   3.8412
     4.0922   4.0922   6.0157   6.0157   6.4091   6.4091   7.0293   7.0293
     7.2879   7.2879

          k =-0.5081-0.3869 0.0000 ( 36463 PWs)   bands (ev):

   -44.1386 -44.1386 -22.2662 -22.2662 -22.2092 -22.2092 -22.0617 -22.0616
    -7.2821  -6.8842  -6.8471  -6.6716  -6.1744  -5.2532  -5.1021  -4.7269
    -4.6472  -4.4337   0.5281   0.5792   0.6787   1.2622   1.4144   1.5904
     1.6698   1.7221   2.0359   2.1203   2.2325   2.2804   2.3706   3.2569
     3.3883   3.4250   3.4430   3.5696   3.7019   3.7980   3.8203   4.0834
     4.4762   5.1699   5.4698   5.8217   6.1235   6.7337   6.7812   6.8250
     7.2835   7.5330

          k =-0.5081-0.3869 0.1485 ( 36477 PWs)   bands (ev):

   -44.1386 -44.1386 -22.2662 -22.2662 -22.2092 -22.2092 -22.0617 -22.0616
    -7.2490  -7.0140  -6.7638  -6.6817  -6.0688  -5.4995  -4.9283  -4.6881
    -4.6687  -4.4581   0.4907   0.7045   0.7717   1.0367   1.3720   1.4106
     1.5991   1.6861   2.0272   2.0747   2.3075   2.5974   2.8282   3.2173
     3.3827   3.4191   3.4583   3.5474   3.6333   3.7015   3.7849   4.1124
     4.2419   4.5495   6.0227   6.1501   6.2270   6.6223   6.7884   6.8502
     7.1271   7.4835

          k =-0.5081-0.3869-0.2971 ( 36492 PWs)   bands (ev):

   -44.1386 -44.1386 -22.2662 -22.2662 -22.2092 -22.2092 -22.0616 -22.0616
    -7.1542  -7.1542  -6.7110  -6.7110  -5.8130  -5.8130  -4.7862  -4.7862
    -4.5443  -4.5443   0.5926   0.5926   1.0585   1.0585   1.1228   1.1228
     1.5972   1.5972   2.0368   2.0368   2.7906   2.7906   3.1699   3.1699
     3.3358   3.3358   3.4204   3.4204   3.6839   3.6839   3.7980   3.7980
     4.1991   4.1991   6.2574   6.2574   6.6593   6.6593   6.7688   6.7688
     7.1338   7.1338

          k =-0.2541-0.3224 0.0000 ( 36485 PWs)   bands (ev):

   -44.1395 -44.1395 -22.2709 -22.2709 -22.1856 -22.1856 -22.0646 -22.0645
    -7.6137  -7.1611  -7.0482  -6.7968  -6.3841  -5.3440  -5.0367  -4.8375
    -4.7504  -3.9984   0.5287   0.9047   1.0616   1.2899   1.3693   1.4632
     1.9510   1.9807   2.1511   2.4398   2.5237   3.2543   3.2760   3.4419
     3.6053   3.6191   3.7416   3.8503   3.8919   4.1177   4.1603   4.2102
     4.3756   4.5905   5.8997   6.0249   6.3557   6.5790   6.7039   6.8402
     6.9240   7.0143

          k =-0.2541-0.3224 0.1485 ( 36445 PWs)   bands (ev):

   -44.1395 -44.1395 -22.2709 -22.2709 -22.1856 -22.1856 -22.0646 -22.0645
    -7.5771  -7.3079  -6.9353  -6.8093  -6.2812  -5.6340  -4.8916  -4.7723
    -4.6759  -4.0893   0.5649   0.9626   1.0057   1.1543   1.2731   1.5599
     1.8358   2.2529   2.3971   2.4470   2.5168   2.9003   3.3565   3.3819
     3.4327   3.5380   3.6945   3.8837   3.9118   4.0717   4.1540   4.2104
     4.6943   4.8943   5.7917   5.9338   6.1713   6.3487   6.6192   6.7317
     7.1507   7.2825

          k =-0.2541-0.3224-0.2971 ( 36442 PWs)   bands (ev):

   -44.1395 -44.1395 -22.2709 -22.2709 -22.1856 -22.1856 -22.0645 -22.0645
    -7.4706  -7.4706  -6.8501  -6.8501  -6.0037  -6.0037  -4.8249  -4.8249
    -4.3390  -4.3390   0.7124   0.7124   1.1931   1.1931   1.2418   1.2418
     2.2617   2.2617   2.4414   2.4414   2.6690   2.6690   3.2119   3.2119
     3.4124   3.4124   3.7931   3.7931   4.0279   4.0279   4.1915   4.1915
     5.1105   5.1105   5.6795   5.6795   6.1009   6.1009   6.6361   6.6361
     7.3758   7.3758

          k = 0.0000-0.2579 0.0000 ( 36445 PWs)   bands (ev):

   -44.1399 -44.1399 -22.2728 -22.2728 -22.1757 -22.1757 -22.0658 -22.0657
    -7.7348  -7.2703  -7.1237  -6.8387  -6.4418  -5.3869  -5.0295  -4.8797
    -4.7948  -3.8530   0.4501   0.7697   0.8898   1.1489   1.5530   1.6007
     2.3755   2.3976   2.7190   2.7973   2.9736   3.0460   3.3094   3.3269
     3.3693   3.6686   3.6824   3.9680   4.1346   4.1516   4.1906   4.6504
     4.9220   5.4364   5.7071   5.7638   5.8976   6.0998   6.4080   6.7517
     6.9594   7.2070

          k = 0.0000-0.2579 0.1485 ( 36452 PWs)   bands (ev):

   -44.1399 -44.1399 -22.2728 -22.2728 -22.1757 -22.1757 -22.0658 -22.0657
    -7.6973  -7.4194  -6.9996  -6.8523  -6.3456  -5.6894  -4.9068  -4.8135
    -4.6712  -3.9681   0.4986   0.9153   0.9508   1.0816   1.1218   1.9826
     2.1395   2.4049   2.6133   2.8744   2.9650   3.1362   3.2587   3.3113
     3.6278   3.6576   3.7607   3.9176   4.1272   4.1662   4.1850   4.6575
     4.8117   5.0025   5.8132   5.9839   6.0390   6.0693   6.5792   6.6826
     6.7879   7.1808

          k = 0.0000-0.2579-0.2971 ( 36454 PWs)   bands (ev):

   -44.1399 -44.1399 -22.2728 -22.2728 -22.1757 -22.1757 -22.0657 -22.0657
    -7.5877  -7.5877  -6.8987  -6.8987  -6.0708  -6.0708  -4.8569  -4.8569
    -4.2724  -4.2724   0.7042   0.7042   1.0061   1.0061   1.4171   1.4171
     2.4891   2.4891   2.7009   2.7009   2.9357   2.9357   3.2906   3.2906
     3.7719   3.7719   3.9493   3.9493   4.1081   4.1081   4.4056   4.4056
     4.6966   4.6966   5.9501   5.9501   6.2826   6.2826   6.4020   6.4020
     7.0586   7.0586

          k = 1.5243 0.0000 0.0000 ( 36439 PWs)   bands (ev):

   -44.1386 -44.1386 -22.2662 -22.2662 -22.2092 -22.2092 -22.0617 -22.0616
    -7.2764  -6.8840  -6.8462  -6.6763  -6.1787  -5.2527  -5.1053  -4.7283
    -4.6445  -4.4341   0.5227   0.5844   0.6725   1.2664   1.5042   1.5852
     1.6482   1.7199   2.0469   2.1388   2.2467   2.2680   2.3678   3.2093
     3.3726   3.3998   3.4545   3.6637   3.6924   3.6959   3.7888   4.1000
     4.4706   5.1673   5.4664   5.7842   6.1524   6.6975   6.8377   6.8755
     7.2367   7.5635

          k = 1.5243 0.0000 0.1485 ( 36476 PWs)   bands (ev):

   -44.1386 -44.1386 -22.2662 -22.2662 -22.2092 -22.2092 -22.0617 -22.0616
    -7.2434  -7.0102  -6.7676  -6.6870  -6.0711  -5.4992  -4.9328  -4.6877
    -4.6678  -4.4572   0.4909   0.7080   0.7657   1.0353   1.4062   1.4095
     1.6195   1.7170   2.0354   2.0653   2.3050   2.6055   2.8373   3.1707
     3.3420   3.4294   3.4418   3.6091   3.6368   3.7007   3.7110   4.1359
     4.1928   4.5515   5.9959   6.1609   6.2240   6.5929   6.8315   6.9163
     7.0787   7.4953

          k = 1.5243 0.0000-0.2971 ( 36508 PWs)   bands (ev):

   -44.1386 -44.1386 -22.2662 -22.2662 -22.2092 -22.2092 -22.0616 -22.0616
    -7.1490  -7.1490  -6.7167  -6.7167  -5.8132  -5.8132  -4.7898  -4.7898
    -4.5420  -4.5420   0.5955   0.5955   1.0579   1.0579   1.1167   1.1167
     1.6487   1.6487   2.0251   2.0251   2.8072   2.8072   3.1356   3.1356
     3.3350   3.3350   3.4188   3.4188   3.6802   3.6802   3.7903   3.7903
     4.1782   4.1782   6.2428   6.2428   6.6545   6.6545   6.7825   6.7825
     7.1470   7.1470

          k =-0.2541-0.4514 0.0000 ( 36444 PWs)   bands (ev):

   -44.1395 -44.1395 -22.2709 -22.2709 -22.1856 -22.1856 -22.0646 -22.0645
    -7.6043  -7.1596  -7.0421  -6.8048  -6.3998  -5.3443  -5.0447  -4.8387
    -4.7456  -3.9994   0.5384   0.9147   1.1780   1.3163   1.3638   1.5502
     1.9896   2.0070   2.1466   2.3541   2.4483   3.1947   3.3072   3.3725
     3.5485   3.6250   3.7604   3.8114   3.8440   4.0811   4.1329   4.1644
     4.3860   4.5636   5.9691   6.0353   6.3808   6.5594   6.7647   6.8439
     6.8484   6.9987

          k =-0.2541-0.4514 0.1485 ( 36461 PWs)   bands (ev):

   -44.1395 -44.1395 -22.2709 -22.2709 -22.1856 -22.1856 -22.0646 -22.0645
    -7.5679  -7.3011  -6.9384  -6.8180  -6.2915  -5.6346  -4.9047  -4.7702
    -4.6705  -4.0892   0.5719   0.9765   1.0143   1.2882   1.3390   1.5823
     1.8561   2.2508   2.3622   2.4125   2.4685   2.8925   3.2876   3.3080
     3.4141   3.5558   3.7349   3.8496   3.8617   3.9751   4.1496   4.1756
     4.7284   4.8587   5.7833   5.9576   6.1780   6.3208   6.6870   6.7419
     7.1286   7.2699

          k =-0.2541-0.4514-0.2971 ( 36490 PWs)   bands (ev):

   -44.1395 -44.1395 -22.2709 -22.2709 -22.1856 -22.1856 -22.0645 -22.0645
    -7.4620  -7.4620  -6.8586  -6.8586  -6.0071  -6.0071  -4.8303  -4.8303
    -4.3365  -4.3365   0.7162   0.7162   1.2484   1.2484   1.3137   1.3137
     2.2662   2.2662   2.3805   2.3805   2.6654   2.6654   3.2256   3.2256
     3.3108   3.3108   3.8062   3.8062   3.9865   3.9865   4.1568   4.1568
     5.1190   5.1190   5.6532   5.6532   6.0794   6.0794   6.6987   6.6987
     7.3585   7.3585

          k = 0.0000-0.3869 0.0000 ( 36477 PWs)   bands (ev):

   -44.1399 -44.1399 -22.2728 -22.2728 -22.1757 -22.1757 -22.0658 -22.0657
    -7.7231  -7.2684  -7.1128  -6.8496  -6.4654  -5.3882  -5.0412  -4.8814
    -4.7876  -3.8545   0.4736   0.7829   1.0444   1.2118   1.5768   1.6680
     2.3805   2.4014   2.7382   2.7944   2.9689   3.0688   3.0887   3.0912
     3.4730   3.6551   3.6600   3.9523   3.9532   4.0149   4.1905   4.6512
     4.8992   5.4054   5.7771   5.7818   5.9470   6.1423   6.4709   6.6562
     6.9599   7.1819

          k = 0.0000-0.3869 0.1485 ( 36452 PWs)   bands (ev):

   -44.1399 -44.1399 -22.2728 -22.2728 -22.1757 -22.1757 -22.0658 -22.0657
    -7.6857  -7.4108  -7.0008  -6.8636  -6.3622  -5.6913  -4.9246  -4.8101
    -4.6647  -3.9682   0.5147   0.9772   1.0139   1.1593   1.2110   2.0046
     2.1752   2.4104   2.6232   2.8777   2.9616   2.9806   3.0401   3.3211
     3.5854   3.6722   3.7365   3.9104   4.0237   4.0590   4.1213   4.6581
     4.7990   4.9974   5.8552   5.9954   6.0705   6.0819   6.5311   6.7113
     6.7900   7.1506

          k = 0.0000-0.3869-0.2971 ( 36454 PWs)   bands (ev):

   -44.1399 -44.1399 -22.2728 -22.2728 -22.1757 -22.1757 -22.0657 -22.0657
    -7.5769  -7.5769  -6.9085  -6.9085  -6.0772  -6.0772  -4.8635  -4.8635
    -4.2696  -4.2696   0.7144   0.7144   1.1445   1.1445   1.4386   1.4386
     2.4961   2.4961   2.6962   2.6962   2.9358   2.9358   3.0951   3.0951
     3.7966   3.7966   3.9329   3.9329   3.9908   3.9908   4.3891   4.3891
     4.6941   4.6941   5.9335   5.9335   6.3108   6.3108   6.4076   6.4076
     7.0325   7.0325

          k =-2.0325 0.0000 0.0000 ( 36452 PWs)   bands (ev):

   -44.1399 -44.1399 -22.2728 -22.2728 -22.1757 -22.1757 -22.0658 -22.0657
    -7.7181  -7.2676  -7.1085  -6.8536  -6.4757  -5.3887  -5.0462  -4.8811
    -4.7855  -3.8551   0.4786   0.7885   1.1601   1.2017   1.5862   1.7097
     2.3827   2.4034   2.7466   2.7932   2.9281   2.9666   2.9838   3.1127
     3.5841   3.6436   3.6743   3.8251   3.9468   3.9547   4.1905   4.6516
     4.8899   5.3963   5.7893   5.8073   5.9729   6.1552   6.4906   6.6057
     6.9601   7.1753

          k =-2.0325 0.0000 0.1485 ( 36456 PWs)   bands (ev):

   -44.1399 -44.1399 -22.2728 -22.2728 -22.1757 -22.1757 -22.0658 -22.0657
    -7.6808  -7.4072  -7.0017  -6.8680  -6.3691  -5.6920  -4.9314  -4.8091
    -4.6621  -3.9682   0.5170   0.9880   1.0429   1.2068   1.2722   2.0144
     2.1911   2.4127   2.6273   2.8712   2.8794   2.9247   2.9600   3.3628
     3.5653   3.7217   3.7264   3.8971   3.9523   4.0070   4.1188   4.6584
     4.7938   4.9968   5.8773   6.0002   6.0781   6.0831   6.5067   6.7182
     6.7909   7.1401

          k =-2.0325 0.0000-0.2971 ( 36460 PWs)   bands (ev):

   -44.1399 -44.1399 -22.2728 -22.2728 -22.1757 -22.1757 -22.0657 -22.0657
    -7.5723  -7.5723  -6.9127  -6.9127  -6.0797  -6.0797  -4.8663  -4.8663
    -4.2684  -4.2684   0.7148   0.7148   1.2186   1.2186   1.4480   1.4480
     2.4990   2.4990   2.6663   2.6663   2.9359   2.9359   3.0244   3.0244
     3.8228   3.8228   3.9259   3.9259   3.9366   3.9366   4.3828   4.3828
     4.6932   4.6932   5.9242   5.9242   6.3198   6.3198   6.4100   6.4100
     7.0201   7.0201

     the Fermi energy is     5.4399 ev

!    total energy              =   -4240.95092831 Ry

     total all-electron energy =   -150287.644623 Ry
     estimated scf accuracy    <          1.8E-11 Ry
     smearing contrib. (-TS)   =      -0.00001367 Ry
     internal energy E=F+TS    =   -4240.95091464 Ry

     The total energy is F=E-TS. E is the sum of the following terms:
     one-electron contribution =    -166.14130931 Ry
     hartree contribution      =     116.54946813 Ry
     xc contribution           =    -201.46275762 Ry
     ewald contribution        =    -222.38170601 Ry
     one-center paw contrib.   =   -3767.51460982 Ry

     convergence has been achieved in  16 iterations

     Forces acting on atoms (cartesian axes, Ry/au):

     atom    1 type  1   force =     0.00000000   -0.00804726    0.00000000
     atom    2 type  1   force =     0.00000000    0.00804726    0.00000000
     atom    3 type  2   force =     0.00000000    0.00022389    0.00000000
     atom    4 type  2   force =     0.00000000   -0.00022389    0.00000000
     atom    5 type  2   force =    -0.00000000    0.00172862    0.00051795
     atom    6 type  2   force =     0.00000000   -0.00172862   -0.00051795
     atom    7 type  2   force =    -0.00000000    0.00172862   -0.00051795
     atom    8 type  2   force =     0.00000000   -0.00172862    0.00051795
     atom    9 type  2   force =     0.00000000    0.01030848    0.00993158
     atom   10 type  2   force =     0.00000000   -0.01030848   -0.00993158
     atom   11 type  2   force =     0.00000000    0.01030848   -0.00993158
     atom   12 type  2   force =     0.00000000   -0.01030848    0.00993158

     Total force =     0.031020     Total SCF correction =     0.000006


     Computing stress (Cartesian axis) and pressure

          total   stress  (Ry/bohr**3)                   (kbar)     P=       -2.46
  -0.00001374  -0.00000000   0.00000000           -2.02       -0.00        0.00
   0.00000000  -0.00001467   0.00000000            0.00       -2.16        0.00
   0.00000000   0.00000000  -0.00002169            0.00        0.00       -3.19

 
     init_run     :     19.40s CPU     19.86s WALL (       1 calls)
     electrons    :    901.49s CPU    911.49s WALL (       1 calls)
     forces       :      7.02s CPU      7.23s WALL (       1 calls)
     stress       :     43.57s CPU     44.13s WALL (       1 calls)

     Called by init_run:
     wfcinit      :     14.80s CPU     14.96s WALL (       1 calls)
     potinit      :      1.45s CPU      1.49s WALL (       1 calls)
     hinit0       :      1.83s CPU      1.87s WALL (       1 calls)

     Called by electrons:
     c_bands      :    756.70s CPU    759.83s WALL (      17 calls)
     sum_band     :    121.32s CPU    125.05s WALL (      17 calls)
     v_of_rho     :      5.18s CPU      5.45s WALL (      17 calls)
     newd         :     13.07s CPU     16.11s WALL (      17 calls)
     PAW_pot      :      5.40s CPU      5.40s WALL (      17 calls)
     mix_rho      :      0.75s CPU      0.77s WALL (      17 calls)

     Called by c_bands:
     init_us_2    :     10.50s CPU     10.55s WALL (    2331 calls)
     cegterg      :    686.47s CPU    689.12s WALL (    1071 calls)

     Called by *egterg:
     cdiaghg      :     27.53s CPU     27.60s WALL (    8103 calls)
     h_psi        :    522.45s CPU    524.91s WALL (    8229 calls)
     s_psi        :     43.69s CPU     43.75s WALL (    8229 calls)
     g_psi        :      1.89s CPU      1.91s WALL (    7095 calls)

     Called by h_psi:
     h_psi:calbec :     37.63s CPU     37.69s WALL (    8229 calls)
     vloc_psi     :    438.53s CPU    440.78s WALL (    8229 calls)
     add_vuspsi   :     43.43s CPU     43.51s WALL (    8229 calls)

     General routines
     calbec       :     49.72s CPU     49.81s WALL (    9615 calls)
     fft          :      3.19s CPU      3.32s WALL (     245 calls)
     ffts         :      0.08s CPU      0.08s WALL (      34 calls)
     fftw         :    414.81s CPU    416.85s WALL (  404978 calls)
     interpolate  :      0.27s CPU      0.27s WALL (      17 calls)
 
     Parallel routines
 
     PWSCF        :  16m11.73s CPU  16m23.02s WALL

 
   This run was terminated on:  15:33:55  19Nov2021            

=------------------------------------------------------------------------------=
   JOB DONE.
=------------------------------------------------------------------------------=
