
     Program PWSCF v.6.8 starts on 19Nov2021 at 15:17:10 

     This program is part of the open-source Quantum ESPRESSO suite
     for quantum simulation of materials; please cite
         "P. Giannozzi et al., J. Phys.:Condens. Matter 21 395502 (2009);
         "P. Giannozzi et al., J. Phys.:Condens. Matter 29 465901 (2017);
         "P. Giannozzi et al., J. Chem. Phys. 152 154105 (2020);
          URL http://www.quantum-espresso.org", 
     in publications or presentations arising from this work. More details at
     http://www.quantum-espresso.org/quote

     Parallel version (MPI), running on    10 processors

     MPI processes distributed on     1 nodes
     R & G space division:  proc/nbgrp/npool/nimage =      10
     73564 MiB available memory on the printing compute node when the environment starts
 
     Waiting for input...
     Reading input from standard input

     Current dimensions of program PWSCF are:
     Max number of different atomic species (ntypx) = 10
     Max number of k-points (npk) =  40000
     Max angular momentum in pseudopotentials (lmaxx) =  4
     file Zr.pbe-spn-kjpaw_psl.1.0.0.UPF: wavefunction(s)  4S 4P renormalized
     file Te.pbe-n-kjpaw_psl.1.0.0.UPF: wavefunction(s)  5S 5P renormalized
     Message from routine setup:
     using ibrav=0 with symmetry is DISCOURAGED, use correct ibrav instead

     Subspace diagonalization in iterative solution of the eigenvalue problem:
     a serial algorithm will be used

 
     Parallelization info
     --------------------
     sticks:   dense  smooth     PW     G-vecs:    dense   smooth      PW
     Min         734     293     87               115340    29174    4753
     Max         735     295     88               115345    29176    4760
     Sum        7345    2937    873              1153415   291749   47557
 
     Using Slab Decomposition
 


     bravais-lattice index     =            0
     lattice parameter (alat)  =      15.5510  a.u.
     unit-cell volume          =    3018.5011 (a.u.)^3
     number of atoms/cell      =           12
     number of atomic types    =            2
     number of electrons       =        84.00
     number of Kohn-Sham states=           50
     kinetic-energy cutoff     =      80.0000  Ry
     charge density cutoff     =     800.0000  Ry
     scf convergence threshold =      1.0E-10
     mixing beta               =       0.7000
     number of iterations used =            8  plain     mixing
     Exchange-correlation= SLA  PW   PBX  PBC
                           (   1   4   3   4   0   0   0)

     celldm(1)=  15.551040  celldm(2)=   0.000000  celldm(3)=   0.000000
     celldm(4)=   0.000000  celldm(5)=   0.000000  celldm(6)=   0.000000

     crystal axes: (cart. coord. in units of alat)
               a(1) = (   0.246007  -0.969268   0.000000 )  
               a(2) = (   0.246007   0.969268   0.000000 )  
               a(3) = (   0.000000   0.000000   1.683031 )  

     reciprocal axes: (cart. coord. in units 2 pi/alat)
               b(1) = (  2.032465 -0.515853  0.000000 )  
               b(2) = (  2.032465  0.515853  0.000000 )  
               b(3) = (  0.000000  0.000000  0.594166 )  


     PseudoPot. # 1 for Zr read from file:
     pseudo/Zr.pbe-spn-kjpaw_psl.1.0.0.UPF
     MD5 check sum: 02112c41713a0468aff2bb39ef194e36
     Pseudo is Projector augmented-wave + core cor, Zval = 12.0
     Generated using &quot;atomic&quot; code by A. Dal Corso  v.6.2.2
     Shape of augmentation charge: PSQ
     Using radial grid of 1225 points,  6 beta functions with: 
                l(1) =   0
                l(2) =   0
                l(3) =   1
                l(4) =   1
                l(5) =   2
                l(6) =   2
     Q(r) pseudized with 0 coefficients 


     PseudoPot. # 2 for Te read from file:
     pseudo/Te.pbe-n-kjpaw_psl.1.0.0.UPF
     MD5 check sum: 66247bff2bd9dbf220fbb0bf5ab56e9d
     Pseudo is Projector augmented-wave + core cor, Zval =  6.0
     Generated using &quot;atomic&quot; code by A. Dal Corso  v.6.3
     Shape of augmentation charge: PSQ
     Using radial grid of 1245 points,  6 beta functions with: 
                l(1) =   0
                l(2) =   0
                l(3) =   1
                l(4) =   1
                l(5) =   2
                l(6) =   2
     Q(r) pseudized with 0 coefficients 


     atomic species   valence    mass     pseudopotential
        Zr            12.00    91.22000     Zr( 1.00)
        Te             6.00   127.60000     Te( 1.00)

      8 Sym. Ops., with inversion, found ( 4 have fractional translation)



   Cartesian axes

     site n.     atom                  positions (alat units)
         1           Zr  tau(   1) = (   0.0000000   0.6062560   0.4207578  )
         2           Zr  tau(   2) = (   0.2460067   0.3630121   1.2622733  )
         3           Te  tau(   3) = (   0.2460067   0.3342614   0.4207578  )
         4           Te  tau(   4) = (   0.0000000   0.6350067   1.2622733  )
         5           Te  tau(   5) = (   0.2460067   0.8095306   0.2518618  )
         6           Te  tau(   6) = (   0.0000000   0.1597376   1.4311692  )
         7           Te  tau(   7) = (   0.2460067   0.8095306   0.5896537  )
         8           Te  tau(   8) = (   0.0000000   0.1597376   1.0933774  )
         9           Te  tau(   9) = (   0.0000000   0.4137557   0.7297985  )
        10           Te  tau(  10) = (   0.2460067   0.5555124   0.9532326  )
        11           Te  tau(  11) = (   0.0000000   0.4137557   0.1117171  )
        12           Te  tau(  12) = (   0.2460067   0.5555124   1.5713140  )

     number of k points=    63  Methfessel-Paxton smearing, width (Ry)=  0.0030
                       cart. coord. in units 2pi/alat
        k(    1) = (   0.0000000   0.0000000   0.0000000), wk =   0.0078125
        k(    2) = (   0.0000000   0.0000000   0.1485415), wk =   0.0156250
        k(    3) = (   0.0000000   0.0000000  -0.2970830), wk =   0.0078125
        k(    4) = (   0.2540581   0.0644816   0.0000000), wk =   0.0312500
        k(    5) = (   0.2540581   0.0644816   0.1485415), wk =   0.0625000
        k(    6) = (   0.2540581   0.0644816  -0.2970830), wk =   0.0312500
        k(    7) = (   0.5081162   0.1289633   0.0000000), wk =   0.0312500
        k(    8) = (   0.5081162   0.1289633   0.1485415), wk =   0.0625000
        k(    9) = (   0.5081162   0.1289633  -0.2970830), wk =   0.0312500
        k(   10) = (   0.7621743   0.1934449   0.0000000), wk =   0.0312500
        k(   11) = (   0.7621743   0.1934449   0.1485415), wk =   0.0625000
        k(   12) = (   0.7621743   0.1934449  -0.2970830), wk =   0.0312500
        k(   13) = (  -1.0162324  -0.2579266   0.0000000), wk =   0.0156250
        k(   14) = (  -1.0162324  -0.2579266   0.1485415), wk =   0.0312500
        k(   15) = (  -1.0162324  -0.2579266  -0.2970830), wk =   0.0156250
        k(   16) = (   0.5081162   0.0000000   0.0000000), wk =   0.0156250
        k(   17) = (   0.5081162   0.0000000   0.1485415), wk =   0.0312500
        k(   18) = (   0.5081162   0.0000000  -0.2970830), wk =   0.0156250
        k(   19) = (   0.7621743   0.0644816   0.0000000), wk =   0.0312500
        k(   20) = (   0.7621743   0.0644816   0.1485415), wk =   0.0625000
        k(   21) = (   0.7621743   0.0644816  -0.2970830), wk =   0.0312500
        k(   22) = (   1.0162324   0.1289633   0.0000000), wk =   0.0312500
        k(   23) = (   1.0162324   0.1289633   0.1485415), wk =   0.0625000
        k(   24) = (   1.0162324   0.1289633  -0.2970830), wk =   0.0312500
        k(   25) = (  -0.7621743  -0.3224082   0.0000000), wk =   0.0312500
        k(   26) = (  -0.7621743  -0.3224082   0.1485415), wk =   0.0625000
        k(   27) = (  -0.7621743  -0.3224082  -0.2970830), wk =   0.0312500
        k(   28) = (  -0.5081162  -0.2579266   0.0000000), wk =   0.0312500
        k(   29) = (  -0.5081162  -0.2579266   0.1485415), wk =   0.0625000
        k(   30) = (  -0.5081162  -0.2579266  -0.2970830), wk =   0.0312500
        k(   31) = (  -0.2540581  -0.1934449   0.0000000), wk =   0.0312500
        k(   32) = (  -0.2540581  -0.1934449   0.1485415), wk =   0.0625000
        k(   33) = (  -0.2540581  -0.1934449  -0.2970830), wk =   0.0312500
        k(   34) = (   0.0000000  -0.1289633   0.0000000), wk =   0.0156250
        k(   35) = (   0.0000000  -0.1289633   0.1485415), wk =   0.0312500
        k(   36) = (   0.0000000  -0.1289633  -0.2970830), wk =   0.0156250
        k(   37) = (   1.0162324   0.0000000   0.0000000), wk =   0.0156250
        k(   38) = (   1.0162324   0.0000000   0.1485415), wk =   0.0312500
        k(   39) = (   1.0162324   0.0000000  -0.2970830), wk =   0.0156250
        k(   40) = (   1.2702905   0.0644816   0.0000000), wk =   0.0312500
        k(   41) = (   1.2702905   0.0644816   0.1485415), wk =   0.0625000
        k(   42) = (   1.2702905   0.0644816  -0.2970830), wk =   0.0312500
        k(   43) = (  -0.5081162  -0.3868899   0.0000000), wk =   0.0312500
        k(   44) = (  -0.5081162  -0.3868899   0.1485415), wk =   0.0625000
        k(   45) = (  -0.5081162  -0.3868899  -0.2970830), wk =   0.0312500
        k(   46) = (  -0.2540581  -0.3224082   0.0000000), wk =   0.0312500
        k(   47) = (  -0.2540581  -0.3224082   0.1485415), wk =   0.0625000
        k(   48) = (  -0.2540581  -0.3224082  -0.2970830), wk =   0.0312500
        k(   49) = (   0.0000000  -0.2579266   0.0000000), wk =   0.0156250
        k(   50) = (   0.0000000  -0.2579266   0.1485415), wk =   0.0312500
        k(   51) = (   0.0000000  -0.2579266  -0.2970830), wk =   0.0156250
        k(   52) = (   1.5243485   0.0000000   0.0000000), wk =   0.0156250
        k(   53) = (   1.5243485   0.0000000   0.1485415), wk =   0.0312500
        k(   54) = (   1.5243485   0.0000000  -0.2970830), wk =   0.0156250
        k(   55) = (  -0.2540581  -0.4513715   0.0000000), wk =   0.0312500
        k(   56) = (  -0.2540581  -0.4513715   0.1485415), wk =   0.0625000
        k(   57) = (  -0.2540581  -0.4513715  -0.2970830), wk =   0.0312500
        k(   58) = (   0.0000000  -0.3868899   0.0000000), wk =   0.0156250
        k(   59) = (   0.0000000  -0.3868899   0.1485415), wk =   0.0312500
        k(   60) = (   0.0000000  -0.3868899  -0.2970830), wk =   0.0156250
        k(   61) = (  -2.0324647   0.0000000   0.0000000), wk =   0.0078125
        k(   62) = (  -2.0324647   0.0000000   0.1485415), wk =   0.0156250
        k(   63) = (  -2.0324647   0.0000000  -0.2970830), wk =   0.0078125

     Dense  grid:  1153415 G-vectors     FFT dimensions: ( 144, 144, 240)

     Smooth grid:   291749 G-vectors     FFT dimensions: (  90,  90, 150)

     Estimated max dynamical RAM per process >     657.19 MB

     Estimated total dynamical RAM >       6.42 GB

     Initial potential from superposition of free atoms

     starting charge   83.99353, renormalised to   84.00000
     Starting wfcs are   66 randomized atomic wfcs
     Checking if some PAW data can be deallocated... 

     total cpu time spent up to now is       20.1 secs

     Self-consistent Calculation

     iteration #  1     ecut=    80.00 Ry     beta= 0.70
     Davidson diagonalization with overlap
     ethr =  1.00E-02,  avg # of iterations =  2.0

     Threshold (ethr) on eigenvalues was too large:
     Diagonalizing with lowered threshold

     Davidson diagonalization with overlap
     ethr =  4.10E-04,  avg # of iterations =  4.0

     total cpu time spent up to now is      102.9 secs

     total energy              =   -4240.73193487 Ry
     estimated scf accuracy    <       0.43321178 Ry

     iteration #  2     ecut=    80.00 Ry     beta= 0.70
     Davidson diagonalization with overlap
     ethr =  5.16E-04,  avg # of iterations =  7.8

     total cpu time spent up to now is      162.2 secs

     total energy              =   -4240.63811098 Ry
     estimated scf accuracy    <       2.06848564 Ry

     iteration #  3     ecut=    80.00 Ry     beta= 0.70
     Davidson diagonalization with overlap
     ethr =  5.16E-04,  avg # of iterations =  5.2

     total cpu time spent up to now is      212.5 secs

     total energy              =   -4240.93687528 Ry
     estimated scf accuracy    <       0.01119518 Ry

     iteration #  4     ecut=    80.00 Ry     beta= 0.70
     Davidson diagonalization with overlap
     c_bands:  1 eigenvalues not converged
     c_bands:  2 eigenvalues not converged
     c_bands:  1 eigenvalues not converged
     c_bands:  1 eigenvalues not converged
     c_bands:  2 eigenvalues not converged
     c_bands:  2 eigenvalues not converged
     c_bands:  1 eigenvalues not converged
     c_bands:  2 eigenvalues not converged
     c_bands:  2 eigenvalues not converged
     c_bands:  1 eigenvalues not converged
     c_bands:  2 eigenvalues not converged
     c_bands:  2 eigenvalues not converged
     c_bands:  1 eigenvalues not converged
     c_bands:  1 eigenvalues not converged
     c_bands:  2 eigenvalues not converged
     c_bands:  4 eigenvalues not converged
     c_bands:  1 eigenvalues not converged
     c_bands:  1 eigenvalues not converged
     c_bands:  1 eigenvalues not converged
     c_bands:  1 eigenvalues not converged
     ethr =  1.33E-05,  avg # of iterations = 17.8

     total cpu time spent up to now is      309.1 secs

     total energy              =   -4240.94985511 Ry
     estimated scf accuracy    <       0.07050793 Ry

     iteration #  5     ecut=    80.00 Ry     beta= 0.70
     Davidson diagonalization with overlap
     ethr =  1.33E-05,  avg # of iterations =  7.0

     total cpu time spent up to now is      358.8 secs

     WARNING: integrated charge=    83.99754010, expected=    84.00000000

     total energy              =   -4240.95395205 Ry
     estimated scf accuracy    <       0.01341280 Ry

     iteration #  6     ecut=    80.00 Ry     beta= 0.70
     Davidson diagonalization with overlap
     ethr =  1.33E-05,  avg # of iterations =  3.0

     total cpu time spent up to now is      398.5 secs

     WARNING: integrated charge=    83.99823249, expected=    84.00000000

     total energy              =   -4240.95283694 Ry
     estimated scf accuracy    <       0.00169549 Ry

     iteration #  7     ecut=    80.00 Ry     beta= 0.70
     Davidson diagonalization with overlap
     c_bands:  1 eigenvalues not converged
     ethr =  2.02E-06,  avg # of iterations = 12.0

     total cpu time spent up to now is      466.9 secs

     WARNING: integrated charge=    83.99921679, expected=    84.00000000

     total energy              =   -4240.95368224 Ry
     estimated scf accuracy    <       0.00176042 Ry

     iteration #  8     ecut=    80.00 Ry     beta= 0.70
     Davidson diagonalization with overlap
     ethr =  2.02E-06,  avg # of iterations =  2.0

     total cpu time spent up to now is      503.0 secs

     WARNING: integrated charge=    83.99973096, expected=    84.00000000

     total energy              =   -4240.95371898 Ry
     estimated scf accuracy    <       0.00028677 Ry

     iteration #  9     ecut=    80.00 Ry     beta= 0.70
     Davidson diagonalization with overlap
     ethr =  3.41E-07,  avg # of iterations =  6.4

     total cpu time spent up to now is      552.0 secs

     WARNING: integrated charge=    83.99990765, expected=    84.00000000

     total energy              =   -4240.95380833 Ry
     estimated scf accuracy    <       0.00002803 Ry

     iteration # 10     ecut=    80.00 Ry     beta= 0.70
     Davidson diagonalization with overlap
     ethr =  3.34E-08,  avg # of iterations =  4.2

     total cpu time spent up to now is      592.8 secs

     WARNING: integrated charge=    83.99997225, expected=    84.00000000

     total energy              =   -4240.95381165 Ry
     estimated scf accuracy    <       0.00000578 Ry

     iteration # 11     ecut=    80.00 Ry     beta= 0.70
     Davidson diagonalization with overlap
     ethr =  6.88E-09,  avg # of iterations =  6.0

     total cpu time spent up to now is      642.0 secs

     WARNING: integrated charge=    83.99998691, expected=    84.00000000

     total energy              =   -4240.95381398 Ry
     estimated scf accuracy    <       0.00000091 Ry

     iteration # 12     ecut=    80.00 Ry     beta= 0.70
     Davidson diagonalization with overlap
     ethr =  1.08E-09,  avg # of iterations =  3.7

     total cpu time spent up to now is      681.7 secs

     total energy              =   -4240.95381413 Ry
     estimated scf accuracy    <       0.00000004 Ry

     iteration # 13     ecut=    80.00 Ry     beta= 0.70
     Davidson diagonalization with overlap
     ethr =  4.38E-11,  avg # of iterations =  9.1

     total cpu time spent up to now is      746.1 secs

     total energy              =   -4240.95381417 Ry
     estimated scf accuracy    <       0.00000006 Ry

     iteration # 14     ecut=    80.00 Ry     beta= 0.70
     Davidson diagonalization with overlap
     ethr =  4.38E-11,  avg # of iterations =  2.1

     total cpu time spent up to now is      782.3 secs

     total energy              =   -4240.95381417 Ry
     estimated scf accuracy    <       0.00000001 Ry

     iteration # 15     ecut=    80.00 Ry     beta= 0.70
     Davidson diagonalization with overlap
     ethr =  1.44E-11,  avg # of iterations =  6.2

     total cpu time spent up to now is      831.5 secs

     total energy              =   -4240.95381417 Ry
     estimated scf accuracy    <          3.7E-09 Ry

     iteration # 16     ecut=    80.00 Ry     beta= 0.70
     Davidson diagonalization with overlap
     ethr =  4.39E-12,  avg # of iterations =  2.3

     total cpu time spent up to now is      867.6 secs

     total energy              =   -4240.95381417 Ry
     estimated scf accuracy    <          9.2E-10 Ry

     iteration # 17     ecut=    80.00 Ry     beta= 0.70
     Davidson diagonalization with overlap
     ethr =  1.10E-12,  avg # of iterations =  6.1

     total cpu time spent up to now is      914.4 secs

     End of self-consistent calculation

          k = 0.0000 0.0000 0.0000 ( 36359 PWs)   bands (ev):

   -44.1340 -44.1340 -22.2617 -22.2617 -22.1677 -22.1677 -22.0634 -22.0633
    -7.8315  -7.4391  -7.1316  -6.8519  -6.3349  -5.4051  -4.9523  -4.8457
    -4.7942  -3.8398   0.3533   0.7486   0.7617   1.1142   1.4690   1.5276
     2.2961   2.3488   2.6234   2.7282   2.9531   3.0117   3.2344   3.4233
     3.6818   3.7768   3.9577   4.0660   4.2337   4.3362   4.3492   4.6691
     4.8740   5.5030   5.6333   5.8081   5.8394   5.9556   6.1842   6.8320
     6.9785   7.2719

          k = 0.0000 0.0000 0.1485 ( 36415 PWs)   bands (ev):

   -44.1340 -44.1340 -22.2617 -22.2617 -22.1677 -22.1677 -22.0634 -22.0633
    -7.7959  -7.5441  -7.0376  -6.8687  -6.2555  -5.6718  -4.8477  -4.8031
    -4.6564  -3.9558   0.4170   0.7973   0.9011   1.0148   1.0742   1.9239
     2.0675   2.3242   2.5241   2.8120   2.9392   3.1200   3.3856   3.3993
     3.6973   3.8426   3.9405   4.0670   4.1730   4.3553   4.3674   4.6724
     4.7870   4.9985   5.7994   5.9571   5.9629   6.0105   6.5334   6.6323
     6.8013   7.2036

          k = 0.0000 0.0000-0.2971 ( 36410 PWs)   bands (ev):

   -44.1340 -44.1340 -22.2617 -22.2617 -22.1677 -22.1677 -22.0634 -22.0634
    -7.6936  -7.6936  -6.9264  -6.9264  -6.0187  -6.0187  -4.8246  -4.8246
    -4.2604  -4.2604   0.6297   0.6297   0.9187   0.9187   1.3654   1.3654
     2.4047   2.4047   2.6472   2.6472   2.8942   2.8942   3.4863   3.4863
     3.8865   3.8865   4.0081   4.0081   4.3476   4.3476   4.3908   4.3908
     4.6982   4.6982   5.9402   5.9402   6.2229   6.2229   6.4147   6.4147
     7.0095   7.0095

          k = 0.2541 0.0645 0.0000 ( 36396 PWs)   bands (ev):

   -44.1336 -44.1336 -22.2597 -22.2597 -22.1774 -22.1774 -22.0622 -22.0621
    -7.7140  -7.3273  -7.0597  -6.8043  -6.2731  -5.3608  -4.9656  -4.8029
    -4.7506  -3.9909   0.4395   0.8761   0.8913   1.2315   1.2957   1.3977
     1.8210   1.8618   2.0467   2.5634   2.5895   3.1459   3.3265   3.7190
     3.7453   3.7572   3.7963   3.8187   4.0222   4.2475   4.2828   4.2859
     4.4887   4.5880   5.8051   5.9791   6.2256   6.5782   6.5988   6.7701
     7.0098   7.1710

          k = 0.2541 0.0645 0.1485 ( 36423 PWs)   bands (ev):

   -44.1336 -44.1336 -22.2597 -22.2597 -22.1774 -22.1774 -22.0622 -22.0621
    -7.6792  -7.4322  -6.9711  -6.8196  -6.1913  -5.6179  -4.8231  -4.7614
    -4.6736  -4.0835   0.4910   0.9258   0.9450   0.9642   1.1812   1.4583
     1.7866   2.1322   2.2674   2.5456   2.5733   2.9475   3.3295   3.3453
     3.5729   3.7616   3.9268   3.9378   4.0264   4.1461   4.3140   4.3353
     4.6820   4.8751   5.8374   5.9182   6.1763   6.2648   6.4245   6.7327
     7.2273   7.3017

          k = 0.2541 0.0645-0.2971 ( 36436 PWs)   bands (ev):

   -44.1336 -44.1336 -22.2597 -22.2597 -22.1774 -22.1774 -22.0622 -22.0622
    -7.5789  -7.5789  -6.8710  -6.8710  -5.9546  -5.9546  -4.7880  -4.7880
    -4.3356  -4.3356   0.6619   0.6619   1.0233   1.0233   1.1833   1.1833
     2.1592   2.1592   2.4748   2.4748   2.6725   2.6725   3.1788   3.1788
     3.6274   3.6274   3.9325   3.9325   4.1014   4.1014   4.3414   4.3414
     5.0465   5.0465   5.7750   5.7750   6.1373   6.1373   6.4466   6.4466
     7.4126   7.4126

          k = 0.5081 0.1290 0.0000 ( 36499 PWs)   bands (ev):

   -44.1327 -44.1327 -22.2550 -22.2550 -22.2009 -22.2009 -22.0594 -22.0593
    -7.3782  -7.0025  -6.8901  -6.6791  -6.0828  -5.2620  -5.0666  -4.6916
    -4.6429  -4.4424   0.4434   0.5964   0.6470   1.2111   1.2285   1.4438
     1.6674   1.6937   1.9853   2.1040   2.1675   2.2443   2.4126   3.3681
     3.4491   3.5063   3.5216   3.5913   3.7718   3.8808   3.9202   4.1753
     4.4357   5.0856   5.5611   6.0412   6.0780   6.5847   6.6020   6.9391
     7.4435   7.5650

          k = 0.5081 0.1290 0.1485 ( 36476 PWs)   bands (ev):

   -44.1327 -44.1327 -22.2550 -22.2550 -22.2009 -22.2009 -22.0594 -22.0593
    -7.3459  -7.1160  -6.8042  -6.6908  -5.9995  -5.4879  -4.8940  -4.6724
    -4.6539  -4.4712   0.4344   0.6483   0.7626   1.0146   1.2556   1.3830
     1.4462   1.5646   2.0210   2.0953   2.3432   2.4658   2.8015   3.3906
     3.4212   3.4537   3.5232   3.5844   3.7031   3.7493   3.8485   4.2297
     4.3234   4.5130   6.1292   6.1706   6.3075   6.5867   6.6446   6.8043
     7.2814   7.5062

          k = 0.5081 0.1290-0.2971 ( 36466 PWs)   bands (ev):

   -44.1327 -44.1327 -22.2550 -22.2550 -22.2009 -22.2009 -22.0594 -22.0594
    -7.2531  -7.2531  -6.7289  -6.7289  -5.7784  -5.7784  -4.7492  -4.7492
    -4.5569  -4.5569   0.5321   0.5321   1.0353   1.0353   1.1125   1.1125
     1.4138   1.4138   2.0586   2.0586   2.7129   2.7129   3.1571   3.1571
     3.3985   3.3985   3.5532   3.5532   3.7096   3.7096   3.8312   3.8312
     4.3108   4.3108   6.3712   6.3712   6.5579   6.5579   6.8262   6.8262
     7.1344   7.1344

          k = 0.7622 0.1934 0.0000 ( 36521 PWs)   bands (ev):

   -44.1318 -44.1318 -22.2502 -22.2502 -22.2243 -22.2243 -22.0566 -22.0565
    -6.9224  -6.7353  -6.5021  -6.4699  -5.7933  -5.3797  -5.2206  -5.1040
    -4.5676  -4.5315   0.0145   0.0593   0.5259   1.0221   1.0471   1.2669
     1.4819   1.6033   1.9624   2.0656   2.2497   2.3723   2.4147   2.7866
     2.8797   3.2655   3.3362   3.4406   3.6043   3.6842   3.7058   3.7969
     3.8555   4.5630   5.8909   6.3093   6.3692   6.8321   6.8391   6.9322
     7.2973   7.6139

          k = 0.7622 0.1934 0.1485 ( 36503 PWs)   bands (ev):

   -44.1318 -44.1318 -22.2502 -22.2502 -22.2243 -22.2243 -22.0566 -22.0565
    -6.9000  -6.7693  -6.4982  -6.4749  -5.7316  -5.4459  -5.1969  -5.1186
    -4.5588  -4.5339   0.0266   0.2213   0.3986   0.9134   1.0204   1.2279
     1.4949   1.6286   1.8839   2.0629   2.1313   2.6246   2.6905   2.8414
     2.8859   3.0916   3.2716   3.3909   3.5269   3.6223   3.6535   3.9316
     3.9742   4.5442   5.6524   6.3387   6.6425   6.7337   6.8998   6.9726
     7.0742   7.5722

          k = 0.7622 0.1934-0.2971 ( 36522 PWs)   bands (ev):

   -44.1318 -44.1318 -22.2502 -22.2502 -22.2243 -22.2243 -22.0565 -22.0565
    -6.8402  -6.8402  -6.4871  -6.4871  -5.5894  -5.5894  -5.1550  -5.1550
    -4.5432  -4.5432   0.1698   0.1698   0.5638   0.5638   1.0823   1.0823
     1.5683   1.5683   2.0132   2.0132   2.3756   2.3756   2.8164   2.8164
     2.9904   2.9904   3.3292   3.3292   3.5938   3.5938   3.8750   3.8750
     4.0992   4.0992   6.1308   6.1308   6.4424   6.4424   6.9686   6.9686
     7.4188   7.4188

          k =-1.0162-0.2579 0.0000 ( 36506 PWs)   bands (ev):

   -44.1314 -44.1314 -22.2481 -22.2481 -22.2341 -22.2341 -22.0554 -22.0554
    -6.7104  -6.6903  -5.9710  -5.9600  -5.9142  -5.9065  -5.3511  -5.3504
    -4.5104  -4.4855  -0.0086   0.0143   0.3154   0.3368   1.0123   1.0215
     1.4685   1.6705   2.2341   2.3898   2.3982   2.4089   2.7987   2.8047
     2.8144   2.8486   3.2176   3.2609   3.3181   3.4203   3.5072   3.7207
     3.7662   4.0667   6.5343   6.5576   6.5607   6.6391   7.0174   7.1139
     7.1208   7.1400

          k =-1.0162-0.2579 0.1485 ( 36506 PWs)   bands (ev):

   -44.1314 -44.1314 -22.2481 -22.2481 -22.2341 -22.2341 -22.0554 -22.0554
    -6.7066  -6.6923  -5.9915  -5.9834  -5.8925  -5.8873  -5.3475  -5.3472
    -4.5103  -4.4928  -0.1058  -0.0987   0.5367   0.5437   1.0115   1.0293
     1.4647   1.5947   1.9825   2.0806   2.3756   2.3978   2.7066   2.7076
     2.9407   3.0262   3.1085   3.1944   3.5551   3.5730   3.6614   3.7548
     4.0294   4.1367   6.0074   6.0232   6.4798   6.5554   7.0897   7.1148
     7.3187   7.3657

          k =-1.0162-0.2579-0.2971 ( 36528 PWs)   bands (ev):

   -44.1314 -44.1314 -22.2481 -22.2481 -22.2341 -22.2341 -22.0554 -22.0554
    -6.6985  -6.6985  -6.0025  -6.0025  -5.8762  -5.8762  -5.3439  -5.3439
    -4.5051  -4.5051  -0.1656  -0.1656   0.8008   0.8008   0.9496   0.9496
     1.5311   1.5311   1.7410   1.7410   2.3754   2.3754   2.7706   2.7706
     2.9070   2.9070   3.1642   3.1642   3.6318   3.6318   3.8032   3.8032
     4.3878   4.3878   5.5521   5.5521   6.4340   6.4340   7.1249   7.1249
     7.4199   7.4199

          k = 0.5081 0.0000 0.0000 ( 36503 PWs)   bands (ev):

   -44.1327 -44.1327 -22.2550 -22.2550 -22.2009 -22.2009 -22.0594 -22.0593
    -7.3824  -7.0032  -6.8912  -6.6747  -6.0792  -5.2622  -5.0637  -4.6861
    -4.6495  -4.4420   0.4491   0.6043   0.6337   1.2063   1.2091   1.4199
     1.6694   1.6911   1.9714   2.1153   2.1672   2.2196   2.4112   3.3572
     3.4746   3.4843   3.5696   3.5879   3.7783   3.9052   3.9341   4.2125
     4.4377   5.0820   5.5669   6.0190   6.1139   6.5460   6.5506   6.9748
     7.4598   7.5790

          k = 0.5081 0.0000 0.1485 ( 36453 PWs)   bands (ev):

   -44.1327 -44.1327 -22.2550 -22.2550 -22.2009 -22.2009 -22.0594 -22.0593
    -7.3499  -7.1186  -6.8025  -6.6864  -5.9970  -5.4879  -4.8893  -4.6741
    -4.6536  -4.4722   0.4363   0.6434   0.7637   1.0173   1.2440   1.3918
     1.4068   1.5457   2.0179   2.1043   2.3650   2.4210   2.7973   3.3820
     3.4525   3.4728   3.4968   3.5933   3.6968   3.8203   3.8374   4.2692
     4.3355   4.5066   6.1236   6.1804   6.3251   6.5382   6.6078   6.8362
     7.3025   7.5145

          k = 0.5081 0.0000-0.2971 ( 36452 PWs)   bands (ev):

   -44.1327 -44.1327 -22.2550 -22.2550 -22.2009 -22.2009 -22.0594 -22.0594
    -7.2568  -7.2568  -6.7251  -6.7251  -5.7776  -5.7776  -4.7452  -4.7452
    -4.5597  -4.5597   0.5293   0.5293   1.0358   1.0358   1.1233   1.1233
     1.3751   1.3751   2.0607   2.0607   2.7039   2.7039   3.1459   3.1459
     3.3999   3.3999   3.5724   3.5724   3.7367   3.7367   3.8309   3.8309
     4.3317   4.3317   6.3870   6.3870   6.5219   6.5219   6.8434   6.8434
     7.1355   7.1355

          k = 0.7622 0.0645 0.0000 ( 36505 PWs)   bands (ev):

   -44.1318 -44.1318 -22.2502 -22.2502 -22.2243 -22.2243 -22.0566 -22.0565
    -6.9310  -6.7330  -6.5036  -6.4620  -5.7932  -5.3764  -5.2212  -5.1033
    -4.5584  -4.5416   0.0103   0.0696   0.5421   1.0353   1.0538   1.2811
     1.4442   1.5647   1.9338   2.0838   2.2593   2.3534   2.3552   2.7611
     2.8679   3.3151   3.3575   3.4724   3.6145   3.6301   3.7111   3.8277
     3.8722   4.5976   5.8885   6.3064   6.3581   6.8107   6.8896   6.8907
     7.3139   7.6282

          k = 0.7622 0.0645 0.1485 ( 36509 PWs)   bands (ev):

   -44.1318 -44.1318 -22.2502 -22.2502 -22.2243 -22.2243 -22.0566 -22.0565
    -6.9080  -6.7707  -6.4957  -6.4672  -5.7320  -5.4450  -5.1957  -5.1176
    -4.5524  -4.5410   0.0310   0.2221   0.4079   0.9130   1.0381   1.2433
     1.4617   1.6283   1.9126   1.9935   2.0603   2.6414   2.6757   2.8276
     2.8680   3.0945   3.3273   3.3994   3.5333   3.6160   3.6569   3.9562
     4.0010   4.5413   5.6778   6.3181   6.6533   6.7334   6.9123   6.9725
     7.0485   7.5914

          k = 0.7622 0.0645-0.2971 ( 36472 PWs)   bands (ev):

   -44.1318 -44.1318 -22.2502 -22.2502 -22.2243 -22.2243 -22.0565 -22.0565
    -6.8460  -6.8460  -6.4804  -6.4804  -5.5901  -5.5901  -5.1535  -5.1535
    -4.5435  -4.5435   0.1770   0.1770   0.5571   0.5571   1.1052   1.1052
     1.5618   1.5618   1.9632   1.9632   2.3511   2.3511   2.8177   2.8177
     2.9772   2.9772   3.3889   3.3889   3.5909   3.5909   3.8614   3.8614
     4.1189   4.1189   6.1562   6.1562   6.4431   6.4431   6.9361   6.9361
     7.4463   7.4463

          k = 1.0162 0.1290 0.0000 ( 36514 PWs)   bands (ev):

   -44.1314 -44.1314 -22.2481 -22.2481 -22.2341 -22.2341 -22.0554 -22.0554
    -6.7104  -6.6903  -5.9708  -5.9602  -5.9142  -5.9065  -5.3511  -5.3504
    -4.5104  -4.4855  -0.0145   0.0203   0.3112   0.3411   1.0060   1.0290
     1.4744   1.6613   2.2336   2.3894   2.3908   2.4101   2.7931   2.8053
     2.8146   2.8723   3.2349   3.2443   3.3025   3.4089   3.5456   3.7005
     3.7520   4.0802   6.5239   6.5557   6.5686   6.6457   7.0354   7.1151
     7.1229   7.1277

          k = 1.0162 0.1290 0.1485 ( 36524 PWs)   bands (ev):

   -44.1314 -44.1314 -22.2481 -22.2481 -22.2341 -22.2341 -22.0554 -22.0554
    -6.7066  -6.6923  -5.9913  -5.9835  -5.8924  -5.8874  -5.3476  -5.3471
    -4.5103  -4.4928  -0.1080  -0.0968   0.5380   0.5430   1.0138   1.0274
     1.4699   1.5896   1.9945   2.0643   2.3746   2.3928   2.6647   2.7564
     2.9541   3.0377   3.0975   3.1863   3.5296   3.6093   3.6583   3.7448
     4.0099   4.1562   5.9996   6.0343   6.4767   6.5581   7.0954   7.1137
     7.3256   7.3593

          k = 1.0162 0.1290-0.2971 ( 36516 PWs)   bands (ev):

   -44.1314 -44.1314 -22.2481 -22.2481 -22.2341 -22.2341 -22.0554 -22.0554
    -6.6985  -6.6985  -6.0025  -6.0025  -5.8762  -5.8762  -5.3439  -5.3439
    -4.5051  -4.5051  -0.1657  -0.1657   0.8012   0.8012   0.9496   0.9496
     1.5320   1.5320   1.7418   1.7418   2.3664   2.3664   2.7548   2.7548
     2.9516   2.9516   3.1418   3.1418   3.6354   3.6354   3.7995   3.7995
     4.3883   4.3883   5.5544   5.5544   6.4334   6.4334   7.1265   7.1265
     7.4205   7.4205

          k =-0.7622-0.3224 0.0000 ( 36511 PWs)   bands (ev):

   -44.1318 -44.1318 -22.2502 -22.2502 -22.2243 -22.2243 -22.0566 -22.0565
    -6.9091  -6.7396  -6.4998  -6.4811  -5.7936  -5.3843  -5.2196  -5.1049
    -4.5749  -4.5228   0.0206   0.0451   0.5034   0.9905   1.0636   1.2494
     1.5039   1.6667   2.0212   2.0427   2.2721   2.3981   2.4460   2.8230
     2.8929   3.2049   3.3191   3.4429   3.5731   3.6625   3.6648   3.8142
     3.8657   4.5049   5.8944   6.2995   6.4097   6.7500   6.8829   6.9985
     7.2648   7.5964

          k =-0.7622-0.3224 0.1485 ( 36492 PWs)   bands (ev):

   -44.1318 -44.1318 -22.2502 -22.2502 -22.2243 -22.2243 -22.0566 -22.0565
    -6.8877  -6.7680  -6.5019  -6.4861  -5.7311  -5.4472  -5.1984  -5.1199
    -4.5637  -4.5278   0.0197   0.2218   0.3848   0.9064   1.0119   1.2072
     1.5318   1.6317   1.8653   2.1664   2.2154   2.6087   2.6930   2.8606
     2.9034   3.1095   3.2051   3.3757   3.4763   3.6071   3.6949   3.8822
     3.9469   4.5468   5.6185   6.3719   6.6160   6.7319   6.8708   7.0144
     7.1028   7.5350

          k =-0.7622-0.3224-0.2971 ( 36508 PWs)   bands (ev):

   -44.1318 -44.1318 -22.2502 -22.2502 -22.2243 -22.2243 -22.0565 -22.0565
    -6.8315  -6.8315  -6.4969  -6.4969  -5.5884  -5.5884  -5.1571  -5.1571
    -4.5428  -4.5428   0.1598   0.1598   0.5728   0.5728   1.0553   1.0553
     1.5765   1.5765   2.0691   2.0691   2.4296   2.4296   2.8157   2.8157
     3.0099   3.0099   3.2445   3.2445   3.5925   3.5925   3.8786   3.8786
     4.0824   4.0824   6.0977   6.0977   6.4401   6.4401   7.0224   7.0224
     7.3721   7.3721

          k =-0.5081-0.2579 0.0000 ( 36480 PWs)   bands (ev):

   -44.1327 -44.1327 -22.2550 -22.2550 -22.2009 -22.2009 -22.0594 -22.0593
    -7.3677  -7.0007  -6.8882  -6.6893  -6.0918  -5.2614  -5.0736  -4.6998
    -4.6318  -4.4436   0.4301   0.5933   0.6589   1.2223   1.2865   1.5021
     1.6613   1.7080   2.0207   2.0813   2.1699   2.2890   2.4132   3.3879
     3.3912   3.4525   3.5434   3.5615   3.7481   3.7866   3.9372   4.0989
     4.4269   5.0923   5.5495   5.9851   6.1035   6.6833   6.7231   6.8542
     7.3923   7.5339

          k =-0.5081-0.2579 0.1485 ( 36485 PWs)   bands (ev):

   -44.1327 -44.1327 -22.2550 -22.2550 -22.2009 -22.2009 -22.0594 -22.0593
    -7.3357  -7.1095  -6.8090  -6.7011  -6.0056  -5.4879  -4.9048  -4.6688
    -4.6545  -4.4686   0.4303   0.6591   0.7582   1.0085   1.2869   1.3847
     1.5208   1.6204   2.0207   2.0805   2.3265   2.5311   2.8115   3.3312
     3.4098   3.4486   3.5519   3.5556   3.6176   3.7270   3.8450   4.1500
     4.2841   4.5246   6.1152   6.1686   6.2724   6.6894   6.7334   6.7487
     7.2242   7.4892

          k =-0.5081-0.2579-0.2971 ( 36478 PWs)   bands (ev):

   -44.1327 -44.1327 -22.2550 -22.2550 -22.2009 -22.2009 -22.0594 -22.0594
    -7.2441  -7.2441  -6.7384  -6.7384  -5.7802  -5.7802  -4.7584  -4.7584
    -4.5505  -4.5505   0.5385   0.5385   1.0331   1.0331   1.0939   1.0939
     1.5088   1.5088   2.0498   2.0498   2.7390   2.7390   3.1749   3.1749
     3.3851   3.3851   3.4840   3.4840   3.6865   3.6865   3.8269   3.8269
     4.2605   4.2605   6.3345   6.3345   6.6343   6.6343   6.7896   6.7896
     7.1387   7.1387

          k =-0.2541-0.1934 0.0000 ( 36410 PWs)   bands (ev):

   -44.1336 -44.1336 -22.2597 -22.2597 -22.1774 -22.1774 -22.0622 -22.0621
    -7.7068  -7.3261  -7.0536  -6.8119  -6.2864  -5.3621  -4.9734  -4.8107
    -4.7390  -3.9918   0.4656   0.8835   0.9612   1.2597   1.2925   1.4314
     1.8443   1.8863   2.0481   2.5305   2.5788   3.2097   3.2919   3.6498
     3.6795   3.7278   3.7716   3.8671   3.8808   4.1987   4.2523   4.2754
     4.3927   4.6023   5.8596   6.0060   6.2888   6.5926   6.6306   6.7836
     6.9935   7.0903

          k =-0.2541-0.1934 0.1485 ( 36427 PWs)   bands (ev):

   -44.1336 -44.1336 -22.2597 -22.2597 -22.1774 -22.1774 -22.0622 -22.0621
    -7.6721  -7.4279  -6.9705  -6.8267  -6.2015  -5.6197  -4.8413  -4.7549
    -4.6671  -4.0835   0.5148   0.9395   0.9624   1.0340   1.2145   1.4731
     1.7927   2.1351   2.2948   2.5274   2.5577   2.9309   3.3503   3.3853
     3.5801   3.6572   3.7813   3.8980   3.9814   4.1236   4.2723   4.2853
     4.6748   4.8689   5.8248   5.9412   6.1676   6.3331   6.4941   6.7349
     7.1867   7.2910

          k =-0.2541-0.1934-0.2971 ( 36422 PWs)   bands (ev):

   -44.1336 -44.1336 -22.2597 -22.2597 -22.1774 -22.1774 -22.0622 -22.0622
    -7.5726  -7.5726  -6.8761  -6.8761  -5.9594  -5.9594  -4.7929  -4.7929
    -4.3332  -4.3332   0.6806   0.6806   1.0839   1.0839   1.1922   1.1922
     2.1608   2.1608   2.4686   2.4686   2.6712   2.6712   3.1985   3.1985
     3.6013   3.6013   3.8189   3.8189   4.0824   4.0824   4.2878   4.2878
     5.0558   5.0558   5.7371   5.7371   6.1470   6.1470   6.5225   6.5225
     7.3934   7.3934

          k = 0.0000-0.1290 0.0000 ( 36417 PWs)   bands (ev):

   -44.1340 -44.1340 -22.2617 -22.2617 -22.1677 -22.1677 -22.0634 -22.0633
    -7.8277  -7.4385  -7.1274  -6.8559  -6.3433  -5.4063  -4.9569  -4.8516
    -4.7860  -3.8403   0.3728   0.7531   0.8029   1.1231   1.4801   1.5553
     2.2973   2.3492   2.6225   2.7353   2.9533   3.0168   3.2723   3.4112
     3.6296   3.7658   3.8424   4.0133   4.2338   4.2814   4.3017   4.6688
     4.8633   5.4681   5.6569   5.8156   5.8587   6.0038   6.2332   6.8240
     6.9787   7.2400

          k = 0.0000-0.1290 0.1485 ( 36419 PWs)   bands (ev):

   -44.1340 -44.1340 -22.2617 -22.2617 -22.1677 -22.1677 -22.0634 -22.0633
    -7.7922  -7.5418  -7.0364  -6.8725  -6.2622  -5.6733  -4.8583  -4.7984
    -4.6535  -3.9559   0.4354   0.8391   0.9110   1.0187   1.0946   1.9299
     2.0844   2.3254   2.5253   2.8161   2.9399   3.1298   3.3635   3.4121
     3.6879   3.8325   3.8336   3.9916   4.1704   4.3024   4.3225   4.6720
     4.7806   4.9893   5.8110   5.9749   6.0026   6.0155   6.5556   6.6281
     6.8022   7.1865

          k = 0.0000-0.1290-0.2971 ( 36464 PWs)   bands (ev):

   -44.1340 -44.1340 -22.2617 -22.2617 -22.1677 -22.1677 -22.0634 -22.0634
    -7.6903  -7.6903  -6.9286  -6.9286  -6.0221  -6.0221  -4.8270  -4.8270
    -4.2594  -4.2594   0.6506   0.6506   0.9421   0.9421   1.3727   1.3727
     2.4061   2.4061   2.6583   2.6583   2.8963   2.8963   3.4720   3.4720
     3.8330   3.8330   4.0010   4.0010   4.2509   4.2509   4.4084   4.4084
     4.6964   4.6964   5.9514   5.9514   6.2401   6.2401   6.4171   6.4171
     7.0078   7.0078

          k = 1.0162 0.0000 0.0000 ( 36499 PWs)   bands (ev):

   -44.1314 -44.1314 -22.2481 -22.2481 -22.2341 -22.2341 -22.0554 -22.0554
    -6.7104  -6.6903  -5.9705  -5.9605  -5.9143  -5.9065  -5.3511  -5.3504
    -4.5104  -4.4855  -0.0188   0.0247   0.3080   0.3445   1.0026   1.0336
     1.4810   1.6513   2.2329   2.3844   2.3892   2.4111   2.7889   2.8043
     2.8159   2.8936   3.2540   3.2561   3.2624   3.3932   3.5981   3.6645
     3.7395   4.0924   6.5172   6.5512   6.5759   6.6518   7.0622   7.1066
     7.1164   7.1250

          k = 1.0162 0.0000 0.1485 ( 36485 PWs)   bands (ev):

   -44.1314 -44.1314 -22.2481 -22.2481 -22.2341 -22.2341 -22.0554 -22.0554
    -6.7066  -6.6923  -5.9912  -5.9836  -5.8924  -5.8874  -5.3476  -5.3471
    -4.5103  -4.4928  -0.1096  -0.0955   0.5399   0.5417   1.0175   1.0241
     1.4758   1.5838   2.0199   2.0344   2.3807   2.3810   2.6508   2.7744
     2.9750   3.0629   3.0681   3.1781   3.5188   3.6266   3.6642   3.7299
     3.9947   4.1715   5.9954   6.0419   6.4738   6.5605   7.1031   7.1107
     7.3399   7.3456

          k = 1.0162 0.0000-0.2971 ( 36514 PWs)   bands (ev):

   -44.1314 -44.1314 -22.2481 -22.2481 -22.2341 -22.2341 -22.0554 -22.0554
    -6.6985  -6.6985  -6.0025  -6.0025  -5.8762  -5.8762  -5.3439  -5.3439
    -4.5051  -4.5051  -0.1658  -0.1658   0.8017   0.8017   0.9496   0.9496
     1.5329   1.5329   1.7426   1.7426   2.3575   2.3575   2.7439   2.7439
     3.0033   3.0033   3.1072   3.1072   3.6390   3.6390   3.7957   3.7957
     4.3887   4.3887   5.5567   5.5567   6.4329   6.4329   7.1281   7.1281
     7.4212   7.4212

          k = 1.2703 0.0645 0.0000 ( 36468 PWs)   bands (ev):

   -44.1318 -44.1318 -22.2502 -22.2502 -22.2243 -22.2243 -22.0566 -22.0565
    -6.8986  -6.7436  -6.4983  -6.4891  -5.7939  -5.3876  -5.2189  -5.1056
    -4.5787  -4.5181   0.0250   0.0353   0.4878   0.9739   1.0752   1.2377
     1.5081   1.7126   2.0279   2.0798   2.3029   2.4163   2.4346   2.8505
     2.8977   3.1553   3.3444   3.4897   3.5223   3.5719   3.6703   3.7649
     3.9466   4.4527   5.8969   6.2946   6.4447   6.6908   6.9169   7.0572
     7.2289   7.5951

          k = 1.2703 0.0645 0.1485 ( 36490 PWs)   bands (ev):

   -44.1318 -44.1318 -22.2502 -22.2502 -22.2243 -22.2243 -22.0566 -22.0565
    -6.8780  -6.7677  -6.5042  -6.4945  -5.7307  -5.4481  -5.1995  -5.1208
    -4.5663  -4.5245   0.0145   0.2232   0.3746   0.8976   1.0141   1.1935
     1.5516   1.6364   1.8586   2.2415   2.2799   2.5945   2.6848   2.8700
     2.9170   3.1357   3.1634   3.3587   3.4510   3.5593   3.7574   3.8233
     3.9354   4.5474   5.5961   6.4005   6.5865   6.7300   6.8563   7.0611
     7.1166   7.5009

          k = 1.2703 0.0645-0.2971 ( 36480 PWs)   bands (ev):

   -44.1318 -44.1318 -22.2502 -22.2502 -22.2243 -22.2243 -22.0565 -22.0565
    -6.8250  -6.8250  -6.5042  -6.5042  -5.5877  -5.5877  -5.1587  -5.1587
    -4.5426  -4.5426   0.1529   0.1529   0.5789   0.5789   1.0393   1.0393
     1.5824   1.5824   2.0969   2.0969   2.4857   2.4857   2.8188   2.8188
     3.0235   3.0235   3.1772   3.1772   3.5897   3.5897   3.8680   3.8680
     4.0809   4.0809   6.0760   6.0760   6.4378   6.4378   7.0692   7.0692
     7.3299   7.3300

          k =-0.5081-0.3869 0.0000 ( 36463 PWs)   bands (ev):

   -44.1327 -44.1327 -22.2550 -22.2550 -22.2009 -22.2009 -22.0594 -22.0593
    -7.3567  -6.9990  -6.8873  -6.6986  -6.1010  -5.2608  -5.0808  -4.7050
    -4.6238  -4.4447   0.4173   0.6015   0.6535   1.2328   1.3652   1.5639
     1.6585   1.7149   2.0593   2.0660   2.1939   2.2983   2.4093   3.2722
     3.4144   3.4559   3.4784   3.6167   3.7010   3.7564   3.8536   4.0944
     4.4147   5.0955   5.5402   5.8938   6.1692   6.7690   6.7943   6.8463
     7.3148   7.5201

          k =-0.5081-0.3869 0.1485 ( 36477 PWs)   bands (ev):

   -44.1327 -44.1327 -22.2550 -22.2550 -22.2009 -22.2009 -22.0594 -22.0593
    -7.3250  -7.1030  -6.8147  -6.7110  -6.0117  -5.4879  -4.9151  -4.6663
    -4.6545  -4.4661   0.4264   0.6698   0.7503   1.0030   1.3219   1.3903
     1.6022   1.6907   2.0112   2.0688   2.3253   2.5683   2.8230   3.2264
     3.4103   3.4465   3.4867   3.5707   3.6100   3.7212   3.8084   4.1146
     4.2247   4.5342   6.0640   6.1919   6.2523   6.6533   6.7979   6.8737
     7.1496   7.4860

          k =-0.5081-0.3869-0.2971 ( 36492 PWs)   bands (ev):

   -44.1327 -44.1327 -22.2550 -22.2550 -22.2009 -22.2009 -22.0594 -22.0594
    -7.2346  -7.2346  -6.7482  -6.7482  -5.7819  -5.7819  -4.7671  -4.7671
    -4.5445  -4.5445   0.5444   0.5444   1.0300   1.0300   1.0810   1.0810
     1.6173   1.6173   2.0301   2.0301   2.7737   2.7737   3.1507   3.1507
     3.3559   3.3559   3.4446   3.4446   3.6838   3.6838   3.8171   3.8171
     4.2125   4.2125   6.2994   6.2994   6.6714   6.6714   6.7815   6.7815
     7.1586   7.1586

          k =-0.2541-0.3224 0.0000 ( 36485 PWs)   bands (ev):

   -44.1336 -44.1336 -22.2597 -22.2597 -22.1774 -22.1774 -22.0622 -22.0621
    -7.6963  -7.3244  -7.0456  -6.8214  -6.3059  -5.3639  -4.9851  -4.8152
    -4.7286  -3.9932   0.4915   0.8954   1.0826   1.2855   1.3083   1.5029
     1.8799   1.9235   2.0485   2.4565   2.5346   3.2450   3.3180   3.4780
     3.6051   3.6374   3.7485   3.8219   3.9185   4.1414   4.1494   4.2430
     4.3476   4.5995   5.9459   6.0313   6.3476   6.5850   6.7093   6.8013
     6.9207   7.0219

          k =-0.2541-0.3224 0.1485 ( 36445 PWs)   bands (ev):

   -44.1336 -44.1336 -22.2597 -22.2597 -22.1774 -22.1774 -22.0622 -22.0621
    -7.6619  -7.4217  -6.9705  -6.8362  -6.2162  -5.6222  -4.8621  -4.7496
    -4.6590  -4.0834   0.5372   0.9506   0.9850   1.1630   1.2891   1.4965
     1.8084   2.1385   2.3350   2.4604   2.5222   2.9156   3.3788   3.4213
     3.4731   3.5433   3.6733   3.8880   3.9136   4.0787   4.1873   4.2433
     4.6983   4.8443   5.8117   5.9737   6.1640   6.3625   6.5920   6.7412
     7.1444   7.2736

          k =-0.2541-0.3224-0.2971 ( 36442 PWs)   bands (ev):

   -44.1336 -44.1336 -22.2597 -22.2597 -22.1774 -22.1774 -22.0622 -22.0622
    -7.5635  -7.5635  -6.8835  -6.8835  -5.9661  -5.9661  -4.7998  -4.7998
    -4.3299  -4.3299   0.6962   0.6962   1.1815   1.1815   1.2241   1.2241
     2.1657   2.1657   2.4397   2.4397   2.6651   2.6651   3.2298   3.2298
     3.4521   3.4521   3.7950   3.7950   4.0383   4.0383   4.2233   4.2233
     5.0701   5.0701   5.6953   5.6953   6.1328   6.1328   6.6216   6.6216
     7.3697   7.3697

          k = 0.0000-0.2579 0.0000 ( 36445 PWs)   bands (ev):

   -44.1340 -44.1340 -22.2617 -22.2617 -22.1677 -22.1677 -22.0634 -22.0633
    -7.8184  -7.4369  -7.1175  -6.8650  -6.3642  -5.4092  -4.9695  -4.8573
    -4.7735  -3.8418   0.4107   0.7646   0.9144   1.1709   1.5059   1.6159
     2.3001   2.3515   2.6201   2.7531   2.9534   3.0393   3.3189   3.3762
     3.4221   3.6518   3.7388   3.9609   4.1529   4.1659   4.2340   4.6683
     4.8378   5.4185   5.7161   5.8338   5.9082   6.0781   6.3222   6.7789
     6.9790   7.1839

          k = 0.0000-0.2579 0.1485 ( 36452 PWs)   bands (ev):

   -44.1340 -44.1340 -22.2617 -22.2617 -22.1677 -22.1677 -22.0634 -22.0633
    -7.7832  -7.5363  -7.0339  -6.8810  -6.2786  -5.6768  -4.8786  -4.7919
    -4.6470  -3.9561   0.4691   0.9262   0.9490   1.0666   1.1410   1.9463
     2.1238   2.3284   2.5282   2.8266   2.9414   3.1300   3.2933   3.3661
     3.6285   3.6574   3.8079   3.9135   4.1640   4.1779   4.2025   4.6711
     4.7654   4.9787   5.8461   6.0186   6.0277   6.0544   6.5863   6.6113
     6.8044   7.1472

          k = 0.0000-0.2579-0.2971 ( 36454 PWs)   bands (ev):

   -44.1340 -44.1340 -22.2617 -22.2617 -22.1677 -22.1677 -22.0634 -22.0634
    -7.6822  -7.6822  -6.9342  -6.9342  -6.0304  -6.0304  -4.8330  -4.8330
    -4.2570  -4.2570   0.6842   0.6842   1.0281   1.0281   1.3910   1.3910
     2.4095   2.4095   2.6823   2.6823   2.9016   2.9016   3.3474   3.3474
     3.7737   3.7737   3.9833   3.9833   4.1148   4.1148   4.3921   4.3921
     4.6923   4.6923   5.9595   5.9595   6.2766   6.2766   6.4232   6.4232
     6.9906   6.9906

          k = 1.5243 0.0000 0.0000 ( 36439 PWs)   bands (ev):

   -44.1327 -44.1327 -22.2550 -22.2550 -22.2009 -22.2009 -22.0594 -22.0593
    -7.3520  -6.9983  -6.8873  -6.7022  -6.1049  -5.2606  -5.0837  -4.7065
    -4.6210  -4.4451   0.4122   0.6106   0.6441   1.2370   1.4061   1.5972
     1.6695   1.6901   2.0691   2.0766   2.2390   2.2602   2.4059   3.2270
     3.4059   3.4269   3.4880   3.6965   3.7145   3.7254   3.7410   4.1126
     4.4090   5.0953   5.5368   5.8556   6.1991   6.7329   6.8481   6.9006
     7.2689   7.5524

          k = 1.5243 0.0000 0.1485 ( 36476 PWs)   bands (ev):

   -44.1327 -44.1327 -22.2550 -22.2550 -22.2009 -22.2009 -22.0594 -22.0593
    -7.3205  -7.1002  -6.8174  -6.7150  -6.0142  -5.4879  -4.9193  -4.6656
    -4.6542  -4.4651   0.4248   0.6748   0.7453   1.0010   1.3371   1.3928
     1.6463   1.7179   2.0158   2.0525   2.3303   2.5725   2.8292   3.1831
     3.3712   3.4537   3.4695   3.6078   3.6289   3.7174   3.7493   4.1480
     4.1675   4.5380   6.0379   6.2043   6.2475   6.6235   6.8399   6.9413
     7.1020   7.4990

          k = 1.5243 0.0000-0.2971 ( 36508 PWs)   bands (ev):

   -44.1327 -44.1327 -22.2550 -22.2550 -22.2009 -22.2009 -22.0594 -22.0594
    -7.2306  -7.2306  -6.7524  -6.7524  -5.7826  -5.7826  -4.7707  -4.7707
    -4.5421  -4.5421   0.5467   0.5467   1.0286   1.0286   1.0766   1.0766
     1.6713   1.6713   2.0148   2.0148   2.7928   2.7928   3.1147   3.1147
     3.3548   3.3548   3.4384   3.4384   3.6823   3.6823   3.8109   3.8109
     4.1942   4.1942   6.2853   6.2853   6.6675   6.6675   6.7929   6.7929
     7.1737   7.1737

          k =-0.2541-0.4514 0.0000 ( 36444 PWs)   bands (ev):

   -44.1336 -44.1336 -22.2597 -22.2597 -22.1774 -22.1774 -22.0622 -22.0621
    -7.6886  -7.3231  -7.0406  -6.8272  -6.3203  -5.3650  -4.9936  -4.8159
    -4.7235  -3.9942   0.5020   0.9049   1.2013   1.2788   1.3290   1.5886
     1.9067   1.9621   2.0448   2.3747   2.4602   3.2134   3.3388   3.4072
     3.5106   3.6697   3.7727   3.8064   3.8395   4.1008   4.1211   4.1878
     4.3419   4.5968   6.0176   6.0438   6.3748   6.5778   6.7740   6.8037
     6.8352   7.0017

          k =-0.2541-0.4514 0.1485 ( 36461 PWs)   bands (ev):

   -44.1336 -44.1336 -22.2597 -22.2597 -22.1774 -22.1774 -22.0622 -22.0621
    -7.6545  -7.4172  -6.9711  -6.8424  -6.2267  -5.6238  -4.8749  -4.7472
    -4.6539  -4.0834   0.5456   0.9641   0.9900   1.2945   1.3462   1.5214
     1.8318   2.1393   2.3712   2.3870   2.4470   2.9153   3.3122   3.3409
     3.4433   3.5603   3.7274   3.8447   3.8755   3.9671   4.1804   4.2104
     4.7409   4.8056   5.8046   5.9981   6.1703   6.3453   6.6595   6.7416
     7.1277   7.2594

          k =-0.2541-0.4514-0.2971 ( 36490 PWs)   bands (ev):

   -44.1336 -44.1336 -22.2597 -22.2597 -22.1774 -22.1774 -22.0622 -22.0622
    -7.5569  -7.5569  -6.8890  -6.8890  -5.9708  -5.9708  -4.8048  -4.8048
    -4.3275  -4.3275   0.7016   0.7016   1.2014   1.2014   1.3249   1.3249
     2.1735   2.1735   2.3854   2.3854   2.6621   2.6621   3.2355   3.2355
     3.3476   3.3476   3.8203   3.8203   3.9827   3.9827   4.1918   4.1918
     5.0811   5.0811   5.6700   5.6700   6.1141   6.1141   6.6816   6.6816
     7.3560   7.3560

          k = 0.0000-0.3869 0.0000 ( 36477 PWs)   bands (ev):

   -44.1340 -44.1340 -22.2617 -22.2617 -22.1677 -22.1677 -22.0634 -22.0633
    -7.8087  -7.4353  -7.1082  -6.8727  -6.3861  -5.4119  -4.9830  -4.8570
    -4.7660  -3.8432   0.4340   0.7769   1.0668   1.2329   1.5301   1.6848
     2.3029   2.3556   2.6178   2.7722   2.9528   3.0772   3.1053   3.1375
     3.5265   3.6129   3.7113   3.9491   3.9794   4.0200   4.2340   4.6681
     4.8126   5.3904   5.7778   5.8522   5.9683   6.1236   6.3822   6.6921
     6.9793   7.1554

          k = 0.0000-0.3869 0.1485 ( 36452 PWs)   bands (ev):

   -44.1340 -44.1340 -22.2617 -22.2617 -22.1677 -22.1677 -22.0634 -22.0633
    -7.7738  -7.5307  -7.0322  -6.8889  -6.2954  -5.6802  -4.8956  -4.7879
    -4.6412  -3.9563   0.4869   0.9584   1.0219   1.1636   1.2236   1.9656
     2.1628   2.3314   2.5308   2.8384   2.9425   3.0109   3.0897   3.3290
     3.5645   3.6863   3.7829   3.9130   4.0388   4.0637   4.1572   4.6705
     4.7505   4.9754   5.8910   6.0404   6.0545   6.0759   6.5499   6.6225
     6.8065   7.1158

          k = 0.0000-0.3869-0.2971 ( 36454 PWs)   bands (ev):

   -44.1340 -44.1340 -22.2617 -22.2617 -22.1677 -22.1677 -22.0634 -22.0634
    -7.6739  -7.6739  -6.9400  -6.9400  -6.0385  -6.0385  -4.8390  -4.8390
    -4.2546  -4.2546   0.6980   0.6980   1.1607   1.1607   1.4104   1.4104
     2.4127   2.4127   2.6888   2.6888   2.9073   2.9073   3.1378   3.1378
     3.8061   3.8061   3.9653   3.9653   3.9960   3.9960   4.3720   4.3720
     4.6885   4.6885   5.9520   5.9520   6.3048   6.3048   6.4296   6.4296
     6.9627   6.9627

          k =-2.0325 0.0000 0.0000 ( 36452 PWs)   bands (ev):

   -44.1340 -44.1340 -22.2617 -22.2617 -22.1677 -22.1677 -22.0634 -22.0633
    -7.8046  -7.4347  -7.1046  -6.8754  -6.3955  -5.4130  -4.9887  -4.8558
    -4.7639  -3.8437   0.4395   0.7822   1.1857   1.2167   1.5397   1.7271
     2.3041   2.3582   2.6169   2.7807   2.9524   2.9734   3.0240   3.0986
     3.6202   3.6495   3.6998   3.8410   3.9454   3.9612   4.2340   4.6680
     4.8023   5.3821   5.8034   5.8599   6.0004   6.1376   6.4009   6.6425
     6.9793   7.1497

          k =-2.0325 0.0000 0.1485 ( 36456 PWs)   bands (ev):

   -44.1340 -44.1340 -22.2617 -22.2617 -22.1677 -22.1677 -22.0634 -22.0633
    -7.7698  -7.5284  -7.0318  -6.8919  -6.3024  -5.6815  -4.9021  -4.7866
    -4.6390  -3.9563   0.4902   0.9683   1.0443   1.2230   1.2755   1.9744
     2.1810   2.3326   2.5318   2.8437   2.9127   2.9428   2.9718   3.3543
     3.5439   3.7510   3.7723   3.9111   3.9533   4.0062   4.1542   4.6703
     4.7444   4.9752   5.9145   6.0458   6.0693   6.0758   6.5242   6.6269
     6.8075   7.1057

          k =-2.0325 0.0000-0.2971 ( 36460 PWs)   bands (ev):

   -44.1340 -44.1340 -22.2617 -22.2617 -22.1677 -22.1677 -22.0634 -22.0634
    -7.6704  -7.6704  -6.9425  -6.9425  -6.0418  -6.0418  -4.8415  -4.8415
    -4.2536  -4.2536   0.7000   0.7000   1.2317   1.2317   1.4187   1.4187
     2.4141   2.4141   2.6726   2.6726   2.9098   2.9098   3.0521   3.0521
     3.8460   3.8460   3.9313   3.9313   3.9577   3.9577   4.3646   4.3646
     4.6870   4.6870   5.9458   5.9458   6.3142   6.3142   6.4323   6.4323
     6.9498   6.9498

     the Fermi energy is     5.5167 ev

!    total energy              =   -4240.95381417 Ry

     total all-electron energy =   -150287.647509 Ry
     estimated scf accuracy    <          8.3E-11 Ry
     smearing contrib. (-TS)   =       0.00002569 Ry
     internal energy E=F+TS    =   -4240.95383987 Ry

     The total energy is F=E-TS. E is the sum of the following terms:
     one-electron contribution =    -166.71270819 Ry
     hartree contribution      =     116.83597515 Ry
     xc contribution           =    -201.49056302 Ry
     ewald contribution        =    -222.06799089 Ry
     one-center paw contrib.   =   -3767.51855292 Ry

     convergence has been achieved in  17 iterations

     Forces acting on atoms (cartesian axes, Ry/au):

     atom    1 type  1   force =     0.00000000   -0.00233488    0.00000000
     atom    2 type  1   force =     0.00000000    0.00233488    0.00000000
     atom    3 type  2   force =     0.00000000    0.00011303    0.00000000
     atom    4 type  2   force =    -0.00000000   -0.00011303    0.00000000
     atom    5 type  2   force =     0.00000000    0.00052009    0.00032323
     atom    6 type  2   force =     0.00000000   -0.00052009   -0.00032323
     atom    7 type  2   force =     0.00000000    0.00052009   -0.00032323
     atom    8 type  2   force =     0.00000000   -0.00052009    0.00032323
     atom    9 type  2   force =     0.00000000    0.00323199    0.00323016
     atom   10 type  2   force =     0.00000000   -0.00323199   -0.00323016
     atom   11 type  2   force =     0.00000000    0.00323199   -0.00323016
     atom   12 type  2   force =     0.00000000   -0.00323199    0.00323016

     Total force =     0.009795     Total SCF correction =     0.000013


     Computing stress (Cartesian axis) and pressure

          total   stress  (Ry/bohr**3)                   (kbar)     P=       -0.76
  -0.00000325  -0.00000000   0.00000000           -0.48       -0.00        0.00
  -0.00000000  -0.00000421   0.00000000           -0.00       -0.62        0.00
   0.00000000   0.00000000  -0.00000800            0.00        0.00       -1.18

 
     init_run     :     19.31s CPU     19.77s WALL (       1 calls)
     electrons    :    884.09s CPU    894.36s WALL (       1 calls)
     forces       :      6.57s CPU      6.80s WALL (       1 calls)
     stress       :     41.27s CPU     41.84s WALL (       1 calls)

     Called by init_run:
     wfcinit      :     14.83s CPU     15.01s WALL (       1 calls)
     potinit      :      1.45s CPU      1.49s WALL (       1 calls)
     hinit0       :      1.71s CPU      1.75s WALL (       1 calls)

     Called by electrons:
     c_bands      :    733.16s CPU    736.19s WALL (      18 calls)
     sum_band     :    126.06s CPU    129.92s WALL (      18 calls)
     v_of_rho     :      5.53s CPU      5.78s WALL (      18 calls)
     newd         :     13.81s CPU     17.09s WALL (      18 calls)
     PAW_pot      :      5.73s CPU      5.74s WALL (      18 calls)
     mix_rho      :      0.81s CPU      0.84s WALL (      18 calls)

     Called by c_bands:
     init_us_2    :     11.16s CPU     11.21s WALL (    2457 calls)
     cegterg      :    659.49s CPU    662.03s WALL (    1134 calls)

     Called by *egterg:
     cdiaghg      :     26.22s CPU     26.29s WALL (    7819 calls)
     h_psi        :    502.46s CPU    504.87s WALL (    7945 calls)
     s_psi        :     42.96s CPU     43.01s WALL (    7945 calls)
     g_psi        :      1.84s CPU      1.85s WALL (    6748 calls)

     Called by h_psi:
     h_psi:calbec :     36.83s CPU     36.89s WALL (    7945 calls)
     vloc_psi     :    419.94s CPU    422.14s WALL (    7945 calls)
     add_vuspsi   :     42.86s CPU     42.93s WALL (    7945 calls)

     General routines
     calbec       :     48.84s CPU     48.93s WALL (    9394 calls)
     fft          :      3.34s CPU      3.45s WALL (     258 calls)
     ffts         :      0.08s CPU      0.08s WALL (      36 calls)
     fftw         :    393.03s CPU    395.05s WALL (  407986 calls)
     interpolate  :      0.28s CPU      0.28s WALL (      18 calls)
 
     Parallel routines
 
     PWSCF        :  15m51.49s CPU  16m 3.09s WALL

 
   This run was terminated on:  15:33:13  19Nov2021            

=------------------------------------------------------------------------------=
   JOB DONE.
=------------------------------------------------------------------------------=
