
     Program PWSCF v.6.8 starts on 19Nov2021 at 15:24:26 

     This program is part of the open-source Quantum ESPRESSO suite
     for quantum simulation of materials; please cite
         "P. Giannozzi et al., J. Phys.:Condens. Matter 21 395502 (2009);
         "P. Giannozzi et al., J. Phys.:Condens. Matter 29 465901 (2017);
         "P. Giannozzi et al., J. Chem. Phys. 152 154105 (2020);
          URL http://www.quantum-espresso.org", 
     in publications or presentations arising from this work. More details at
     http://www.quantum-espresso.org/quote

     Parallel version (MPI), running on    10 processors

     MPI processes distributed on     1 nodes
     R & G space division:  proc/nbgrp/npool/nimage =      10
     80739 MiB available memory on the printing compute node when the environment starts
 
     Waiting for input...
     Reading input from standard input

     Current dimensions of program PWSCF are:
     Max number of different atomic species (ntypx) = 10
     Max number of k-points (npk) =  40000
     Max angular momentum in pseudopotentials (lmaxx) =  4
     file Zr.pbe-spn-kjpaw_psl.1.0.0.UPF: wavefunction(s)  4S 4P renormalized
     file Te.pbe-n-kjpaw_psl.1.0.0.UPF: wavefunction(s)  5S 5P renormalized
     Message from routine setup:
     using ibrav=0 with symmetry is DISCOURAGED, use correct ibrav instead

     Subspace diagonalization in iterative solution of the eigenvalue problem:
     a serial algorithm will be used

 
     Parallelization info
     --------------------
     sticks:   dense  smooth     PW     G-vecs:    dense   smooth      PW
     Min         734     293     87               115340    29174    4753
     Max         735     295     88               115345    29176    4760
     Sum        7345    2937    873              1153415   291749   47557
 
     Using Slab Decomposition
 


     bravais-lattice index     =            0
     lattice parameter (alat)  =      15.5510  a.u.
     unit-cell volume          =    3018.5011 (a.u.)^3
     number of atoms/cell      =           12
     number of atomic types    =            2
     number of electrons       =        84.00
     number of Kohn-Sham states=           50
     kinetic-energy cutoff     =      80.0000  Ry
     charge density cutoff     =     800.0000  Ry
     scf convergence threshold =      1.0E-10
     mixing beta               =       0.7000
     number of iterations used =            8  plain     mixing
     Exchange-correlation= SLA  PW   PBX  PBC
                           (   1   4   3   4   0   0   0)

     celldm(1)=  15.551040  celldm(2)=   0.000000  celldm(3)=   0.000000
     celldm(4)=   0.000000  celldm(5)=   0.000000  celldm(6)=   0.000000

     crystal axes: (cart. coord. in units of alat)
               a(1) = (   0.246007  -0.969268   0.000000 )  
               a(2) = (   0.246007   0.969268   0.000000 )  
               a(3) = (   0.000000   0.000000   1.683031 )  

     reciprocal axes: (cart. coord. in units 2 pi/alat)
               b(1) = (  2.032465 -0.515853  0.000000 )  
               b(2) = (  2.032465  0.515853  0.000000 )  
               b(3) = (  0.000000  0.000000  0.594166 )  


     PseudoPot. # 1 for Zr read from file:
     pseudo/Zr.pbe-spn-kjpaw_psl.1.0.0.UPF
     MD5 check sum: 02112c41713a0468aff2bb39ef194e36
     Pseudo is Projector augmented-wave + core cor, Zval = 12.0
     Generated using &quot;atomic&quot; code by A. Dal Corso  v.6.2.2
     Shape of augmentation charge: PSQ
     Using radial grid of 1225 points,  6 beta functions with: 
                l(1) =   0
                l(2) =   0
                l(3) =   1
                l(4) =   1
                l(5) =   2
                l(6) =   2
     Q(r) pseudized with 0 coefficients 


     PseudoPot. # 2 for Te read from file:
     pseudo/Te.pbe-n-kjpaw_psl.1.0.0.UPF
     MD5 check sum: 66247bff2bd9dbf220fbb0bf5ab56e9d
     Pseudo is Projector augmented-wave + core cor, Zval =  6.0
     Generated using &quot;atomic&quot; code by A. Dal Corso  v.6.3
     Shape of augmentation charge: PSQ
     Using radial grid of 1245 points,  6 beta functions with: 
                l(1) =   0
                l(2) =   0
                l(3) =   1
                l(4) =   1
                l(5) =   2
                l(6) =   2
     Q(r) pseudized with 0 coefficients 


     atomic species   valence    mass     pseudopotential
        Zr            12.00    91.22000     Zr( 1.00)
        Te             6.00   127.60000     Te( 1.00)

      8 Sym. Ops., with inversion, found ( 4 have fractional translation)



   Cartesian axes

     site n.     atom                  positions (alat units)
         1           Zr  tau(   1) = (   0.0000000   0.6134211   0.4207578  )
         2           Zr  tau(   2) = (   0.2460067   0.3558470   1.2622733  )
         3           Te  tau(   3) = (   0.2460067   0.3344054   0.4207578  )
         4           Te  tau(   4) = (   0.0000000   0.6348627   1.2622733  )
         5           Te  tau(   5) = (   0.2460067   0.8062690   0.2496355  )
         6           Te  tau(   6) = (   0.0000000   0.1629991   1.4333956  )
         7           Te  tau(   7) = (   0.2460067   0.8062690   0.5918800  )
         8           Te  tau(   8) = (   0.0000000   0.1629991   1.0911510  )
         9           Te  tau(   9) = (   0.0000000   0.4012035   0.7178228  )
        10           Te  tau(  10) = (   0.2460067   0.5680646   0.9652083  )
        11           Te  tau(  11) = (   0.0000000   0.4012035   0.1236928  )
        12           Te  tau(  12) = (   0.2460067   0.5680646   1.5593383  )

     number of k points=    63  Methfessel-Paxton smearing, width (Ry)=  0.0030
                       cart. coord. in units 2pi/alat
        k(    1) = (   0.0000000   0.0000000   0.0000000), wk =   0.0078125
        k(    2) = (   0.0000000   0.0000000   0.1485415), wk =   0.0156250
        k(    3) = (   0.0000000   0.0000000  -0.2970830), wk =   0.0078125
        k(    4) = (   0.2540581   0.0644816   0.0000000), wk =   0.0312500
        k(    5) = (   0.2540581   0.0644816   0.1485415), wk =   0.0625000
        k(    6) = (   0.2540581   0.0644816  -0.2970830), wk =   0.0312500
        k(    7) = (   0.5081162   0.1289633   0.0000000), wk =   0.0312500
        k(    8) = (   0.5081162   0.1289633   0.1485415), wk =   0.0625000
        k(    9) = (   0.5081162   0.1289633  -0.2970830), wk =   0.0312500
        k(   10) = (   0.7621743   0.1934449   0.0000000), wk =   0.0312500
        k(   11) = (   0.7621743   0.1934449   0.1485415), wk =   0.0625000
        k(   12) = (   0.7621743   0.1934449  -0.2970830), wk =   0.0312500
        k(   13) = (  -1.0162324  -0.2579266   0.0000000), wk =   0.0156250
        k(   14) = (  -1.0162324  -0.2579266   0.1485415), wk =   0.0312500
        k(   15) = (  -1.0162324  -0.2579266  -0.2970830), wk =   0.0156250
        k(   16) = (   0.5081162   0.0000000   0.0000000), wk =   0.0156250
        k(   17) = (   0.5081162   0.0000000   0.1485415), wk =   0.0312500
        k(   18) = (   0.5081162   0.0000000  -0.2970830), wk =   0.0156250
        k(   19) = (   0.7621743   0.0644816   0.0000000), wk =   0.0312500
        k(   20) = (   0.7621743   0.0644816   0.1485415), wk =   0.0625000
        k(   21) = (   0.7621743   0.0644816  -0.2970830), wk =   0.0312500
        k(   22) = (   1.0162324   0.1289633   0.0000000), wk =   0.0312500
        k(   23) = (   1.0162324   0.1289633   0.1485415), wk =   0.0625000
        k(   24) = (   1.0162324   0.1289633  -0.2970830), wk =   0.0312500
        k(   25) = (  -0.7621743  -0.3224082   0.0000000), wk =   0.0312500
        k(   26) = (  -0.7621743  -0.3224082   0.1485415), wk =   0.0625000
        k(   27) = (  -0.7621743  -0.3224082  -0.2970830), wk =   0.0312500
        k(   28) = (  -0.5081162  -0.2579266   0.0000000), wk =   0.0312500
        k(   29) = (  -0.5081162  -0.2579266   0.1485415), wk =   0.0625000
        k(   30) = (  -0.5081162  -0.2579266  -0.2970830), wk =   0.0312500
        k(   31) = (  -0.2540581  -0.1934449   0.0000000), wk =   0.0312500
        k(   32) = (  -0.2540581  -0.1934449   0.1485415), wk =   0.0625000
        k(   33) = (  -0.2540581  -0.1934449  -0.2970830), wk =   0.0312500
        k(   34) = (   0.0000000  -0.1289633   0.0000000), wk =   0.0156250
        k(   35) = (   0.0000000  -0.1289633   0.1485415), wk =   0.0312500
        k(   36) = (   0.0000000  -0.1289633  -0.2970830), wk =   0.0156250
        k(   37) = (   1.0162324   0.0000000   0.0000000), wk =   0.0156250
        k(   38) = (   1.0162324   0.0000000   0.1485415), wk =   0.0312500
        k(   39) = (   1.0162324   0.0000000  -0.2970830), wk =   0.0156250
        k(   40) = (   1.2702905   0.0644816   0.0000000), wk =   0.0312500
        k(   41) = (   1.2702905   0.0644816   0.1485415), wk =   0.0625000
        k(   42) = (   1.2702905   0.0644816  -0.2970830), wk =   0.0312500
        k(   43) = (  -0.5081162  -0.3868899   0.0000000), wk =   0.0312500
        k(   44) = (  -0.5081162  -0.3868899   0.1485415), wk =   0.0625000
        k(   45) = (  -0.5081162  -0.3868899  -0.2970830), wk =   0.0312500
        k(   46) = (  -0.2540581  -0.3224082   0.0000000), wk =   0.0312500
        k(   47) = (  -0.2540581  -0.3224082   0.1485415), wk =   0.0625000
        k(   48) = (  -0.2540581  -0.3224082  -0.2970830), wk =   0.0312500
        k(   49) = (   0.0000000  -0.2579266   0.0000000), wk =   0.0156250
        k(   50) = (   0.0000000  -0.2579266   0.1485415), wk =   0.0312500
        k(   51) = (   0.0000000  -0.2579266  -0.2970830), wk =   0.0156250
        k(   52) = (   1.5243485   0.0000000   0.0000000), wk =   0.0156250
        k(   53) = (   1.5243485   0.0000000   0.1485415), wk =   0.0312500
        k(   54) = (   1.5243485   0.0000000  -0.2970830), wk =   0.0156250
        k(   55) = (  -0.2540581  -0.4513715   0.0000000), wk =   0.0312500
        k(   56) = (  -0.2540581  -0.4513715   0.1485415), wk =   0.0625000
        k(   57) = (  -0.2540581  -0.4513715  -0.2970830), wk =   0.0312500
        k(   58) = (   0.0000000  -0.3868899   0.0000000), wk =   0.0156250
        k(   59) = (   0.0000000  -0.3868899   0.1485415), wk =   0.0312500
        k(   60) = (   0.0000000  -0.3868899  -0.2970830), wk =   0.0156250
        k(   61) = (  -2.0324647   0.0000000   0.0000000), wk =   0.0078125
        k(   62) = (  -2.0324647   0.0000000   0.1485415), wk =   0.0156250
        k(   63) = (  -2.0324647   0.0000000  -0.2970830), wk =   0.0078125

     Dense  grid:  1153415 G-vectors     FFT dimensions: ( 144, 144, 240)

     Smooth grid:   291749 G-vectors     FFT dimensions: (  90,  90, 150)

     Estimated max dynamical RAM per process >     657.19 MB

     Estimated total dynamical RAM >       6.42 GB

     Initial potential from superposition of free atoms

     starting charge   83.99353, renormalised to   84.00000
     Starting wfcs are   66 randomized atomic wfcs
     Checking if some PAW data can be deallocated... 

     total cpu time spent up to now is       20.3 secs

     Self-consistent Calculation

     iteration #  1     ecut=    80.00 Ry     beta= 0.70
     Davidson diagonalization with overlap
     ethr =  1.00E-02,  avg # of iterations =  2.0

     Threshold (ethr) on eigenvalues was too large:
     Diagonalizing with lowered threshold

     Davidson diagonalization with overlap
     ethr =  3.67E-04,  avg # of iterations =  4.1

     total cpu time spent up to now is      107.4 secs

     total energy              =   -4240.70817293 Ry
     estimated scf accuracy    <       0.42391742 Ry

     iteration #  2     ecut=    80.00 Ry     beta= 0.70
     Davidson diagonalization with overlap
     ethr =  5.05E-04,  avg # of iterations =  7.4

     total cpu time spent up to now is      168.0 secs

     total energy              =   -4240.61468388 Ry
     estimated scf accuracy    <       2.18658113 Ry

     iteration #  3     ecut=    80.00 Ry     beta= 0.70
     Davidson diagonalization with overlap
     ethr =  5.05E-04,  avg # of iterations =  5.1

     total cpu time spent up to now is      219.9 secs

     total energy              =   -4240.90528082 Ry
     estimated scf accuracy    <       0.02182775 Ry

     iteration #  4     ecut=    80.00 Ry     beta= 0.70
     Davidson diagonalization with overlap
     c_bands:  1 eigenvalues not converged
     c_bands:  1 eigenvalues not converged
     c_bands:  2 eigenvalues not converged
     c_bands:  1 eigenvalues not converged
     ethr =  2.60E-05,  avg # of iterations = 15.3

     total cpu time spent up to now is      307.8 secs

     total energy              =   -4240.92437246 Ry
     estimated scf accuracy    <       0.09571127 Ry

     iteration #  5     ecut=    80.00 Ry     beta= 0.70
     Davidson diagonalization with overlap
     ethr =  2.60E-05,  avg # of iterations =  4.3

     total cpu time spent up to now is      352.5 secs

     total energy              =   -4240.92626060 Ry
     estimated scf accuracy    <       0.02337787 Ry

     iteration #  6     ecut=    80.00 Ry     beta= 0.70
     Davidson diagonalization with overlap
     ethr =  2.60E-05,  avg # of iterations =  2.6

     total cpu time spent up to now is      391.6 secs

     total energy              =   -4240.92735127 Ry
     estimated scf accuracy    <       0.00328097 Ry

     iteration #  7     ecut=    80.00 Ry     beta= 0.70
     Davidson diagonalization with overlap
     c_bands:  1 eigenvalues not converged
     c_bands:  2 eigenvalues not converged
     c_bands:  2 eigenvalues not converged
     c_bands:  1 eigenvalues not converged
     c_bands:  1 eigenvalues not converged
     ethr =  3.91E-06,  avg # of iterations = 12.7

     total cpu time spent up to now is      461.4 secs

     total energy              =   -4240.92916880 Ry
     estimated scf accuracy    <       0.00294337 Ry

     iteration #  8     ecut=    80.00 Ry     beta= 0.70
     Davidson diagonalization with overlap
     c_bands:  1 eigenvalues not converged
     ethr =  3.50E-06,  avg # of iterations =  2.2

     total cpu time spent up to now is      498.1 secs

     total energy              =   -4240.92917550 Ry
     estimated scf accuracy    <       0.00064913 Ry

     iteration #  9     ecut=    80.00 Ry     beta= 0.70
     Davidson diagonalization with overlap
     ethr =  7.73E-07,  avg # of iterations =  6.1

     total cpu time spent up to now is      544.0 secs

     total energy              =   -4240.92931133 Ry
     estimated scf accuracy    <       0.00000680 Ry

     iteration # 10     ecut=    80.00 Ry     beta= 0.70
     Davidson diagonalization with overlap
     c_bands:  1 eigenvalues not converged
     c_bands:  1 eigenvalues not converged
     ethr =  8.09E-09,  avg # of iterations = 11.3

     total cpu time spent up to now is      621.4 secs

     total energy              =   -4240.92933208 Ry
     estimated scf accuracy    <       0.00001679 Ry

     iteration # 11     ecut=    80.00 Ry     beta= 0.70
     Davidson diagonalization with overlap
     c_bands:  1 eigenvalues not converged
     c_bands:  1 eigenvalues not converged
     ethr =  8.09E-09,  avg # of iterations =  4.8

     total cpu time spent up to now is      668.8 secs

     total energy              =   -4240.92933517 Ry
     estimated scf accuracy    <       0.00000012 Ry

     iteration # 12     ecut=    80.00 Ry     beta= 0.70
     Davidson diagonalization with overlap
     c_bands:  1 eigenvalues not converged
     ethr =  1.44E-10,  avg # of iterations =  9.0

     total cpu time spent up to now is      731.9 secs

     total energy              =   -4240.92933522 Ry
     estimated scf accuracy    <       0.00000036 Ry

     iteration # 13     ecut=    80.00 Ry     beta= 0.70
     Davidson diagonalization with overlap
     ethr =  1.44E-10,  avg # of iterations =  3.8

     total cpu time spent up to now is      776.7 secs

     total energy              =   -4240.92933526 Ry
     estimated scf accuracy    <       0.00000002 Ry

     iteration # 14     ecut=    80.00 Ry     beta= 0.70
     Davidson diagonalization with overlap
     ethr =  1.89E-11,  avg # of iterations =  7.2

     total cpu time spent up to now is      833.3 secs

     total energy              =   -4240.92933527 Ry
     estimated scf accuracy    <       0.00000001 Ry

     iteration # 15     ecut=    80.00 Ry     beta= 0.70
     Davidson diagonalization with overlap
     ethr =  1.29E-11,  avg # of iterations =  1.5

     total cpu time spent up to now is      868.5 secs

     total energy              =   -4240.92933526 Ry
     estimated scf accuracy    <          3.1E-09 Ry

     iteration # 16     ecut=    80.00 Ry     beta= 0.70
     Davidson diagonalization with overlap
     ethr =  3.73E-12,  avg # of iterations =  5.5

     total cpu time spent up to now is      914.9 secs

     End of self-consistent calculation

          k = 0.0000 0.0000 0.0000 ( 36359 PWs)   bands (ev):

   -44.1625 -44.1624 -22.3098 -22.3098 -22.2024 -22.2024 -22.0826 -22.0825
    -7.6290  -7.1963  -6.8295  -6.7639  -6.6419  -5.2562  -5.1711  -4.9292
    -4.8711  -3.8669   0.4776   0.6497   0.7998   1.0356   1.4722   1.6318
     2.4054   2.5490   2.5663   2.9912   3.0466   3.0680   3.2233   3.4876
     3.5213   3.5356   3.8572   4.0366   4.0549   4.2710   4.3123   4.6181
     5.2709   5.5326   5.5444   5.5547   5.8716   6.0832   6.4577   6.7599
     6.9290   7.3158

          k = 0.0000 0.0000 0.1485 ( 36415 PWs)   bands (ev):

   -44.1625 -44.1624 -22.3098 -22.3098 -22.2024 -22.2024 -22.0826 -22.0825
    -7.5905  -7.3131  -6.8028  -6.7692  -6.4785  -5.6817  -4.9552  -4.8843
    -4.7064  -3.9821   0.5100   0.6880   0.9052   1.0623   1.0685   2.0723
     2.1335   2.4265   2.5403   3.0527   3.0751   3.1651   3.2835   3.3531
     3.6598   3.6770   3.8164   4.0124   4.0236   4.2904   4.3233   4.6409
     4.9841   5.0704   5.6795   5.9100   6.0711   6.1040   6.5672   6.7314
     6.7705   7.2999

          k = 0.0000 0.0000-0.2971 ( 36410 PWs)   bands (ev):

   -44.1625 -44.1625 -22.3098 -22.3098 -22.2024 -22.2024 -22.0825 -22.0825
    -7.4790  -7.4790  -6.7829  -6.7829  -6.1180  -6.1180  -4.9165  -4.9165
    -4.2899  -4.2899   0.6763   0.6763   0.8309   0.8309   1.4909   1.4909
     2.4808   2.4808   2.7076   2.7076   3.1029   3.1029   3.3112   3.3112
     3.8095   3.8095   3.8691   3.8691   4.3084   4.3084   4.4326   4.4326
     4.7410   4.7410   5.9555   5.9555   6.2671   6.2671   6.3840   6.3840
     7.1949   7.1950

          k = 0.2541 0.0645 0.0000 ( 36396 PWs)   bands (ev):

   -44.1621 -44.1621 -22.3079 -22.3079 -22.2126 -22.2126 -22.0813 -22.0812
    -7.5154  -7.1061  -6.7308  -6.7188  -6.5862  -5.2282  -5.1508  -4.8892
    -4.8303  -4.0018   0.5654   0.7874   0.9385   1.1527   1.2377   1.5335
     1.9511   2.1981   2.2017   2.5106   2.6005   2.9576   3.5337   3.6133
     3.6409   3.6843   3.7113   3.8360   4.0675   4.0923   4.1890   4.2790
     4.4556   4.7623   5.6409   6.0106   6.3216   6.5379   6.6058   6.8235
     7.0045   7.1470

          k = 0.2541 0.0645 0.1485 ( 36423 PWs)   bands (ev):

   -44.1621 -44.1621 -22.3079 -22.3079 -22.2126 -22.2126 -22.0813 -22.0812
    -7.4780  -7.2118  -6.7405  -6.7231  -6.4008  -5.6262  -4.9323  -4.8456
    -4.7075  -4.0941   0.5857   0.8282   0.9727   1.0072   1.1359   1.6370
     1.8851   2.2765   2.5185   2.5613   2.5985   2.9040   3.2359   3.3061
     3.6122   3.6957   3.7881   3.8695   3.9828   4.0732   4.2114   4.2714
     4.7105   5.1014   5.7691   5.8127   6.2288   6.2828   6.4950   6.6546
     7.2665   7.2780

          k = 0.2541 0.0645-0.2971 ( 36436 PWs)   bands (ev):

   -44.1621 -44.1621 -22.3079 -22.3079 -22.2126 -22.2126 -22.0812 -22.0812
    -7.3698  -7.3698  -6.7338  -6.7338  -6.0443  -6.0443  -4.8833  -4.8833
    -4.3497  -4.3497   0.7110   0.7110   0.9334   0.9334   1.3325   1.3325
     2.2568   2.2568   2.6282   2.6282   2.7536   2.7536   3.0722   3.0722
     3.5696   3.5696   3.8335   3.8335   3.9956   3.9956   4.2654   4.2654
     5.2396   5.2396   5.7325   5.7325   6.0504   6.0504   6.4894   6.4894
     7.4270   7.4275

          k = 0.5081 0.1290 0.0000 ( 36499 PWs)   bands (ev):

   -44.1611 -44.1611 -22.3031 -22.3031 -22.2369 -22.2369 -22.0781 -22.0781
    -7.1992  -6.8920  -6.5898  -6.4490  -6.3996  -5.1922  -5.1400  -4.7837
    -4.7298  -4.4105   0.4746   0.7518   0.8151   1.1587   1.3404   1.4844
     1.6484   1.7976   1.9600   2.1743   2.1962   2.2534   2.5690   3.1693
     3.3082   3.3897   3.4329   3.5468   3.7666   3.8279   4.0016   4.1502
     4.7298   5.3177   5.4064   5.7986   5.8825   6.5210   6.5355   6.8061
     7.3475   7.5647

          k = 0.5081 0.1290 0.1485 ( 36476 PWs)   bands (ev):

   -44.1611 -44.1611 -22.3031 -22.3031 -22.2369 -22.2369 -22.0781 -22.0781
    -7.1663  -6.9540  -6.5924  -6.5578  -6.1687  -5.4954  -4.9382  -4.7588
    -4.7078  -4.4434   0.4971   0.7653   0.9402   1.0966   1.1985   1.4236
     1.4665   1.6902   2.0430   2.0607   2.3352   2.5835   2.8869   3.2082
     3.2946   3.3883   3.4600   3.5641   3.6134   3.8097   3.8499   4.2102
     4.4414   4.6249   5.9728   6.0392   6.2167   6.5342   6.5758   6.6953
     7.1983   7.4754

          k = 0.5081 0.1290-0.2971 ( 36466 PWs)   bands (ev):

   -44.1611 -44.1611 -22.3031 -22.3031 -22.2369 -22.2369 -22.0781 -22.0781
    -7.0741  -7.0741  -6.5911  -6.5911  -5.8448  -5.8448  -4.8299  -4.8299
    -4.5498  -4.5498   0.6230   0.6230   1.1066   1.1066   1.2720   1.2720
     1.3595   1.3595   2.0604   2.0604   2.8053   2.8053   3.0828   3.0828
     3.2992   3.2992   3.5362   3.5362   3.7157   3.7157   3.8664   3.8664
     4.3012   4.3012   6.1973   6.1973   6.5266   6.5266   6.7554   6.7554
     7.0834   7.0834

          k = 0.7622 0.1934 0.0000 ( 36521 PWs)   bands (ev):

   -44.1602 -44.1602 -22.2982 -22.2982 -22.2613 -22.2613 -22.0750 -22.0750
    -6.8205  -6.7108  -6.3233  -6.0390  -6.0335  -5.2809  -5.2608  -5.0427
    -4.6628  -4.6278  -0.0025   0.3318   0.6683   1.1722   1.1792   1.2215
     1.4779   1.5844   1.8983   1.9392   2.2558   2.4635   2.5490   2.7113
     2.7390   3.2478   3.2706   3.3190   3.6473   3.6476   3.7794   3.8937
     4.0309   4.5741   5.7363   6.1268   6.2058   6.6165   6.6835   6.7721
     7.1694   7.5373

          k = 0.7622 0.1934 0.1485 ( 36503 PWs)   bands (ev):

   -44.1602 -44.1602 -22.2982 -22.2982 -22.2613 -22.2613 -22.0750 -22.0750
    -6.8037  -6.7252  -6.3158  -6.1925  -5.8294  -5.4085  -5.1856  -5.0646
    -4.6513  -4.6277   0.0798   0.4301   0.5590   0.9648   1.1751   1.2119
     1.4934   1.6307   1.7316   2.0934   2.1275   2.6500   2.6520   2.8005
     2.8577   3.1764   3.2746   3.3597   3.4461   3.6586   3.6992   3.8690
     4.0228   4.8357   5.2940   6.2012   6.5060   6.5373   6.6823   6.8778
     6.9454   7.4205

          k = 0.7622 0.1934-0.2971 ( 36522 PWs)   bands (ev):

   -44.1602 -44.1602 -22.2982 -22.2982 -22.2613 -22.2613 -22.0750 -22.0750
    -6.7634  -6.7634  -6.2812  -6.2812  -5.6061  -5.6061  -5.1185  -5.1185
    -4.6340  -4.6340   0.2925   0.2925   0.7326   0.7326   1.0622   1.0622
     1.5742   1.5742   1.9579   1.9579   2.3805   2.3805   2.7971   2.7971
     2.9886   2.9886   3.4298   3.4298   3.5569   3.5569   3.7674   3.7674
     4.2336   4.2336   5.9358   5.9358   6.3415   6.3415   6.7692   6.7692
     7.2641   7.2641

          k =-1.0162-0.2579 0.0000 ( 36506 PWs)   bands (ev):

   -44.1598 -44.1598 -22.2960 -22.2960 -22.2715 -22.2715 -22.0737 -22.0737
    -6.6757  -6.6554  -5.7618  -5.7537  -5.5950  -5.5923  -5.5896  -5.5799
    -4.6043  -4.5888   0.1049   0.1328   0.4585   0.4757   1.0128   1.0197
     1.4716   1.6776   2.2144   2.3176   2.3183   2.3228   2.8038   2.8413
     2.8483   2.9791   3.2536   3.2703   3.3066   3.5002   3.5699   3.6778
     3.8807   3.8855   6.3088   6.3430   6.4106   6.4970   6.9004   6.9528
     6.9632   6.9717

          k =-1.0162-0.2579 0.1485 ( 36506 PWs)   bands (ev):

   -44.1598 -44.1598 -22.2960 -22.2960 -22.2715 -22.2715 -22.0737 -22.0737
    -6.6722  -6.6578  -5.7538  -5.7464  -5.6694  -5.6658  -5.5166  -5.5093
    -4.6091  -4.5982   0.0234   0.0330   0.6643   0.6672   1.0420   1.0703
     1.4614   1.5632   1.9199   1.9722   2.3512   2.3601   2.7664   2.7816
     2.9499   2.9608   3.2046   3.2441   3.5145   3.5528   3.7014   3.7355
     4.1345   4.1533   5.8190   5.8239   6.3477   6.4178   6.8153   6.8566
     7.1920   7.2099

          k =-1.0162-0.2579-0.2971 ( 36528 PWs)   bands (ev):

   -44.1598 -44.1598 -22.2960 -22.2960 -22.2715 -22.2715 -22.0737 -22.0737
    -6.6644  -6.6644  -5.7276  -5.7276  -5.7175  -5.7175  -5.4800  -5.4800
    -4.6109  -4.6109  -0.0285  -0.0285   0.8807   0.8807   1.1143   1.1143
     1.4519   1.4519   1.6332   1.6332   2.3548   2.3548   2.7973   2.7973
     2.9245   2.9245   3.2406   3.2406   3.5628   3.5628   3.7629   3.7629
     4.7056   4.7056   5.1718   5.1718   6.3188   6.3188   6.8481   6.8481
     7.2511   7.2512

          k = 0.5081 0.0000 0.0000 ( 36503 PWs)   bands (ev):

   -44.1611 -44.1611 -22.3031 -22.3031 -22.2369 -22.2369 -22.0781 -22.0781
    -7.2057  -6.8952  -6.5817  -6.4504  -6.3943  -5.1932  -5.1361  -4.7803
    -4.7344  -4.4101   0.4724   0.7498   0.8221   1.1244   1.3359   1.4642
     1.6549   1.8012   1.9708   2.1379   2.1945   2.2323   2.5784   3.1500
     3.3112   3.3851   3.4872   3.5774   3.7742   3.8136   4.0358   4.1881
     4.7322   5.3237   5.4122   5.8294   5.8630   6.4815   6.4840   6.8413
     7.3783   7.5693

          k = 0.5081 0.0000 0.1485 ( 36453 PWs)   bands (ev):

   -44.1611 -44.1611 -22.3031 -22.3031 -22.2369 -22.2369 -22.0781 -22.0781
    -7.1728  -6.9590  -6.5837  -6.5523  -6.1690  -5.4964  -4.9314  -4.7603
    -4.7092  -4.4442   0.4944   0.7602   0.9468   1.0986   1.1677   1.4116
     1.4570   1.6888   2.0393   2.0597   2.3310   2.5585   2.8784   3.1945
     3.2880   3.4175   3.4865   3.5920   3.6060   3.8482   3.8499   4.2446
     4.4573   4.6283   5.9769   6.0557   6.2184   6.4828   6.5412   6.7251
     7.2250   7.4784

          k = 0.5081 0.0000-0.2971 ( 36452 PWs)   bands (ev):

   -44.1611 -44.1611 -22.3031 -22.3031 -22.2369 -22.2369 -22.0781 -22.0781
    -7.0803  -7.0803  -6.5830  -6.5830  -5.8461  -5.8461  -4.8256  -4.8256
    -4.5525  -4.5525   0.6182   0.6182   1.1075   1.1075   1.2802   1.2802
     1.3281   1.3281   2.0594   2.0594   2.7958   2.7958   3.0569   3.0569
     3.2923   3.2923   3.5999   3.5999   3.7188   3.7188   3.8698   3.8698
     4.3271   4.3271   6.2124   6.2124   6.4932   6.4932   6.7686   6.7686
     7.0855   7.0855

          k = 0.7622 0.0645 0.0000 ( 36505 PWs)   bands (ev):

   -44.1602 -44.1602 -22.2982 -22.2982 -22.2613 -22.2613 -22.0750 -22.0750
    -6.8301  -6.7094  -6.3136  -6.0379  -6.0367  -5.2814  -5.2551  -5.0425
    -4.6577  -4.6343  -0.0092   0.3438   0.6951   1.1619   1.2162   1.2348
     1.4324   1.5394   1.8745   1.9485   2.1992   2.4479   2.5349   2.6930
     2.7083   3.2996   3.3158   3.3199   3.5920   3.6677   3.8370   3.9208
     4.0490   4.6192   5.7351   6.1407   6.1678   6.5812   6.7277   6.7407
     7.1956   7.6589

          k = 0.7622 0.0645 0.1485 ( 36509 PWs)   bands (ev):

   -44.1602 -44.1602 -22.2982 -22.2982 -22.2613 -22.2613 -22.0750 -22.0750
    -6.8123  -6.7261  -6.3065  -6.1897  -5.8320  -5.4091  -5.1812  -5.0636
    -4.6478  -4.6323   0.0759   0.4381   0.5684   0.9903   1.1891   1.2086
     1.4529   1.6369   1.7423   2.0318   2.0468   2.6434   2.6558   2.7682
     2.8510   3.1755   3.3452   3.3826   3.4064   3.6780   3.7330   3.8864
     4.0727   4.8350   5.3217   6.1876   6.5061   6.5185   6.7000   6.8774
     6.9297   7.4388

          k = 0.7622 0.0645-0.2971 ( 36472 PWs)   bands (ev):

   -44.1602 -44.1602 -22.2982 -22.2982 -22.2613 -22.2613 -22.0750 -22.0750
    -6.7688  -6.7688  -6.2741  -6.2741  -5.6084  -5.6084  -5.1156  -5.1156
    -4.6345  -4.6345   0.2945   0.2945   0.7296   0.7296   1.0889   1.0889
     1.5703   1.5703   1.9029   1.9029   2.3457   2.3457   2.7858   2.7858
     2.9882   2.9882   3.4989   3.4989   3.5548   3.5548   3.7622   3.7622
     4.2585   4.2585   5.9592   5.9592   6.3429   6.3429   6.7341   6.7341
     7.2898   7.2898

          k = 1.0162 0.1290 0.0000 ( 36514 PWs)   bands (ev):

   -44.1598 -44.1598 -22.2960 -22.2960 -22.2715 -22.2715 -22.0737 -22.0737
    -6.6757  -6.6554  -5.7611  -5.7543  -5.5950  -5.5932  -5.5886  -5.5799
    -4.6043  -4.5888   0.0992   0.1386   0.4521   0.4822   1.0079   1.0267
     1.4764   1.6689   2.2193   2.2987   2.3145   2.3274   2.8075   2.8411
     2.8774   2.9726   3.2207   3.2946   3.3159   3.5053   3.5484   3.6847
     3.8716   3.8914   6.3088   6.3446   6.4059   6.5022   6.9080   6.9560
     6.9604   6.9740

          k = 1.0162 0.1290 0.1485 ( 36524 PWs)   bands (ev):

   -44.1598 -44.1598 -22.2960 -22.2960 -22.2715 -22.2715 -22.0737 -22.0737
    -6.6722  -6.6578  -5.7532  -5.7471  -5.6701  -5.6651  -5.5168  -5.5091
    -4.6091  -4.5982   0.0214   0.0345   0.6617   0.6703   1.0464   1.0672
     1.4652   1.5619   1.9180   1.9682   2.3428   2.3560   2.7254   2.8329
     2.9646   2.9763   3.1783   3.2467   3.5127   3.5815   3.6931   3.7080
     4.1384   4.1552   5.8067   5.8381   6.3452   6.4202   6.8221   6.8559
     7.1947   7.2073

          k = 1.0162 0.1290-0.2971 ( 36516 PWs)   bands (ev):

   -44.1598 -44.1598 -22.2960 -22.2960 -22.2715 -22.2715 -22.0737 -22.0737
    -6.6644  -6.6644  -5.7275  -5.7275  -5.7176  -5.7176  -5.4800  -5.4800
    -4.6109  -4.6109  -0.0287  -0.0287   0.8800   0.8800   1.1175   1.1175
     1.4504   1.4504   1.6341   1.6341   2.3442   2.3442   2.7797   2.7797
     2.9721   2.9721   3.2202   3.2202   3.5702   3.5702   3.7537   3.7537
     4.7058   4.7058   5.1736   5.1736   6.3186   6.3186   6.8507   6.8507
     7.2509   7.2509

          k =-0.7622-0.3224 0.0000 ( 36511 PWs)   bands (ev):

   -44.1602 -44.1602 -22.2982 -22.2982 -22.2613 -22.2613 -22.0750 -22.0750
    -6.8051  -6.7143  -6.3372  -6.0408  -6.0291  -5.2801  -5.2688  -5.0430
    -4.6673  -4.6214   0.0071   0.3154   0.6329   1.1541   1.1862   1.2015
     1.4997   1.6564   1.9280   1.9441   2.3447   2.4797   2.5714   2.7344
     2.7772   3.1552   3.2354   3.3506   3.6030   3.6525   3.7508   3.8564
     4.0011   4.5025   5.7383   6.1252   6.2480   6.6026   6.6702   6.8398
     7.1274   7.6664

          k =-0.7622-0.3224 0.1485 ( 36492 PWs)   bands (ev):

   -44.1602 -44.1602 -22.2982 -22.2982 -22.2613 -22.2613 -22.0750 -22.0750
    -6.7901  -6.7250  -6.3292  -6.1966  -5.8258  -5.4076  -5.1919  -5.0659
    -4.6542  -4.6232   0.0849   0.4203   0.5440   0.9374   1.1572   1.2180
     1.5526   1.6209   1.7119   2.1895   2.2410   2.6491   2.6623   2.8322
     2.8674   3.1744   3.2012   3.3414   3.4724   3.6212   3.6653   3.8381
     3.9405   4.8355   5.2568   6.2236   6.4891   6.5550   6.6753   6.8981
     6.9633   7.3895

          k =-0.7622-0.3224-0.2971 ( 36508 PWs)   bands (ev):

   -44.1602 -44.1602 -22.2982 -22.2982 -22.2613 -22.2613 -22.0750 -22.0750
    -6.7554  -6.7554  -6.2914  -6.2914  -5.6029  -5.6029  -5.1227  -5.1227
    -4.6333  -4.6333   0.2892   0.2892   0.7369   0.7369   1.0321   1.0321
     1.5773   1.5773   2.0246   2.0246   2.4440   2.4440   2.8177   2.8177
     2.9871   2.9871   3.3361   3.3361   3.5620   3.5620   3.7566   3.7566
     4.1991   4.1991   5.9046   5.9046   6.3379   6.3379   6.8292   6.8292
     7.2203   7.2203

          k =-0.5081-0.2579 0.0000 ( 36480 PWs)   bands (ev):

   -44.1611 -44.1611 -22.3031 -22.3031 -22.2369 -22.2369 -22.0781 -22.0781
    -7.1825  -6.8847  -6.6091  -6.4454  -6.4134  -5.1897  -5.1494  -4.7891
    -4.7218  -4.4115   0.4811   0.7501   0.7989   1.2566   1.3501   1.5369
     1.6382   1.7921   1.9388   2.2156   2.2385   2.2884   2.5507   3.2219
     3.3086   3.3099   3.4040   3.4456   3.7368   3.8364   3.9524   4.0734
     4.7216   5.3058   5.3837   5.7293   5.9323   6.6185   6.6555   6.7217
     7.2709   7.5399

          k =-0.5081-0.2579 0.1485 ( 36485 PWs)   bands (ev):

   -44.1611 -44.1611 -22.3031 -22.3031 -22.2369 -22.2369 -22.0781 -22.0781
    -7.1497  -6.9417  -6.6128  -6.5730  -6.1678  -5.4929  -4.9535  -4.7567
    -4.7038  -4.4416   0.5043   0.7729   0.9253   1.0924   1.2847   1.4328
     1.5156   1.6883   2.0526   2.0666   2.3428   2.6410   2.9056   3.2435
     3.2840   3.3106   3.4387   3.4650   3.6183   3.7727   3.8281   4.1363
     4.3954   4.6167   5.9439   6.0189   6.2136   6.6212   6.6524   6.6700
     7.1316   7.4721

          k =-0.5081-0.2579-0.2971 ( 36478 PWs)   bands (ev):

   -44.1611 -44.1611 -22.3031 -22.3031 -22.2369 -22.2369 -22.0781 -22.0781
    -7.0583  -7.0583  -6.6113  -6.6113  -5.8417  -5.8417  -4.8401  -4.8401
    -4.5438  -4.5438   0.6339   0.6339   1.1033   1.1033   1.2610   1.2610
     1.4352   1.4352   2.0622   2.0622   2.8297   2.8297   3.1513   3.1513
     3.3148   3.3148   3.3834   3.3834   3.7026   3.7026   3.8572   3.8572
     4.2362   4.2362   6.1589   6.1589   6.5967   6.5967   6.7333   6.7333
     7.0821   7.0821

          k =-0.2541-0.1934 0.0000 ( 36410 PWs)   bands (ev):

   -44.1621 -44.1621 -22.3079 -22.3079 -22.2126 -22.2126 -22.0813 -22.0812
    -7.5034  -7.0942  -6.7353  -6.7283  -6.6038  -5.2263  -5.1582  -4.8962
    -4.8219  -4.0028   0.5985   0.8630   0.9484   1.1755   1.2690   1.5349
     1.9714   2.2044   2.2199   2.4735   2.5764   3.0283   3.4095   3.5044
     3.5698   3.6834   3.7670   3.8346   4.0083   4.0913   4.1627   4.2454
     4.3971   4.7288   5.6878   6.0233   6.3557   6.5663   6.6008   6.8463
     7.0026   7.0734

          k =-0.2541-0.1934 0.1485 ( 36427 PWs)   bands (ev):

   -44.1621 -44.1621 -22.3079 -22.3079 -22.2126 -22.2126 -22.0813 -22.0812
    -7.4660  -7.1993  -6.7554  -6.7371  -6.4041  -5.6243  -4.9499  -4.8417
    -4.7009  -4.0938   0.6124   0.8899   1.0050   1.0459   1.1490   1.6542
     1.8853   2.2796   2.4918   2.5513   2.6118   2.9142   3.2330   3.3250
     3.4785   3.6237   3.7543   3.8768   3.9660   4.0585   4.1564   4.2204
     4.6894   5.0797   5.7728   5.8061   6.1941   6.3194   6.5794   6.6759
     7.2317   7.2613

          k =-0.2541-0.1934-0.2971 ( 36422 PWs)   bands (ev):

   -44.1621 -44.1621 -22.3079 -22.3079 -22.2126 -22.2126 -22.0812 -22.0812
    -7.3576  -7.3576  -6.7501  -6.7501  -6.0430  -6.0430  -4.8900  -4.8900
    -4.3465  -4.3465   0.7301   0.7301   0.9995   0.9995   1.3422   1.3422
     2.2553   2.2553   2.5904   2.5904   2.7716   2.7716   3.1042   3.1042
     3.4747   3.4747   3.7998   3.7998   3.9901   3.9901   4.2082   4.2082
     5.2280   5.2280   5.6961   5.6961   6.0370   6.0370   6.5788   6.5788
     7.4050   7.4051

          k = 0.0000-0.1290 0.0000 ( 36417 PWs)   bands (ev):

   -44.1625 -44.1624 -22.3098 -22.3098 -22.2024 -22.2024 -22.0826 -22.0825
    -7.6227  -7.1892  -6.8282  -6.7732  -6.6522  -5.2553  -5.1749  -4.9344
    -4.8655  -3.8676   0.5053   0.6923   0.8058   1.0381   1.4957   1.6419
     2.4094   2.5479   2.5733   2.9992   3.0622   3.0855   3.2209   3.4232
     3.4503   3.5252   3.8048   4.0201   4.0549   4.2181   4.2634   4.6199
     5.2641   5.5057   5.5515   5.5586   5.8836   6.1236   6.5099   6.7275
     6.9300   7.2969

          k = 0.0000-0.1290 0.1485 ( 36419 PWs)   bands (ev):

   -44.1625 -44.1625 -22.3098 -22.3098 -22.2024 -22.2024 -22.0826 -22.0825
    -7.5842  -7.3063  -6.8094  -6.7776  -6.4815  -5.6808  -4.9657  -4.8813
    -4.7028  -3.9820   0.5335   0.7305   0.9211   1.0604   1.0865   2.0811
     2.1483   2.4308   2.5468   3.0694   3.0775   3.1608   3.2370   3.3091
     3.6520   3.6763   3.7567   3.9791   4.0109   4.2443   4.2782   4.6427
     4.9831   5.0556   5.6859   5.9120   6.0809   6.1116   6.5564   6.7715
     6.7760   7.4365

          k = 0.0000-0.1290-0.2971 ( 36464 PWs)   bands (ev):

   -44.1625 -44.1625 -22.3098 -22.3098 -22.2024 -22.2024 -22.0825 -22.0825
    -7.4725  -7.4725  -6.7916  -6.7916  -6.1177  -6.1177  -4.9200  -4.9200
    -4.2883  -4.2883   0.7091   0.7091   0.8431   0.8431   1.5010   1.5010
     2.4861   2.4861   2.7181   2.7181   3.0976   3.0976   3.2672   3.2672
     3.7875   3.7875   3.8644   3.8644   4.2271   4.2271   4.4438   4.4438
     4.7422   4.7422   5.9377   5.9377   6.2899   6.2899   6.3851   6.3851
     7.2024   7.2024

          k = 1.0162 0.0000 0.0000 ( 36499 PWs)   bands (ev):

   -44.1598 -44.1598 -22.2960 -22.2960 -22.2715 -22.2715 -22.0737 -22.0737
    -6.6757  -6.6554  -5.7602  -5.7552  -5.5950  -5.5939  -5.5880  -5.5799
    -4.6043  -4.5888   0.0948   0.1431   0.4478   0.4867   1.0056   1.0310
     1.4819   1.6596   2.2264   2.2791   2.3126   2.3301   2.8142   2.8307
     2.9218   2.9576   3.2052   3.2993   3.3275   3.5052   3.5308   3.6951
     3.8555   3.9011   6.3088   6.3461   6.4016   6.5069   6.9169   6.9563
     6.9591   6.9763

          k = 1.0162 0.0000 0.1485 ( 36485 PWs)   bands (ev):

   -44.1598 -44.1598 -22.2960 -22.2960 -22.2715 -22.2715 -22.0737 -22.0737
    -6.6722  -6.6578  -5.7523  -5.7479  -5.6706  -5.6646  -5.5170  -5.5089
    -4.6091  -4.5982   0.0198   0.0357   0.6605   0.6722   1.0539   1.0610
     1.4695   1.5603   1.9157   1.9644   2.3362   2.3510   2.7105   2.8507
     2.9702   3.0215   3.1397   3.2478   3.5136   3.6366   3.6515   3.6849
     4.1411   4.1581   5.8013   5.8455   6.3428   6.4225   6.8299   6.8542
     7.2002   7.2019

          k = 1.0162 0.0000-0.2971 ( 36514 PWs)   bands (ev):

   -44.1598 -44.1598 -22.2960 -22.2960 -22.2715 -22.2715 -22.0737 -22.0737
    -6.6644  -6.6644  -5.7273  -5.7273  -5.7177  -5.7177  -5.4800  -5.4800
    -4.6109  -4.6109  -0.0288  -0.0288   0.8793   0.8793   1.1206   1.1206
     1.4489   1.4489   1.6349   1.6349   2.3341   2.3341   2.7679   2.7679
     3.0207   3.0207   3.1925   3.1925   3.5780   3.5780   3.7439   3.7439
     4.7060   4.7060   5.1753   5.1753   6.3183   6.3183   6.8534   6.8534
     7.2507   7.2507

          k = 1.2703 0.0645 0.0000 ( 36468 PWs)   bands (ev):

   -44.1602 -44.1602 -22.2982 -22.2982 -22.2613 -22.2613 -22.0750 -22.0750
    -6.7921  -6.7187  -6.3470  -6.0422  -6.0259  -5.2796  -5.2746  -5.0433
    -4.6695  -4.6179   0.0141   0.3041   0.6093   1.1493   1.1837   1.1959
     1.5023   1.7083   1.9213   1.9828   2.4048   2.5016   2.5887   2.7496
     2.7991   3.0689   3.2374   3.4271   3.5415   3.5543   3.8036   3.8296
     3.9785   4.4435   5.7401   6.1300   6.2766   6.5456   6.7117   6.8944
     7.0908   7.5515

          k = 1.2703 0.0645 0.1485 ( 36490 PWs)   bands (ev):

   -44.1602 -44.1602 -22.2982 -22.2982 -22.2613 -22.2613 -22.0750 -22.0750
    -6.7788  -6.7262  -6.3387  -6.1996  -5.8231  -5.4071  -5.1962  -5.0669
    -4.6555  -4.6206   0.0882   0.4146   0.5321   0.9223   1.1465   1.2221
     1.6065   1.6220   1.6760   2.2661   2.3199   2.6585   2.6687   2.8506
     2.8718   3.0876   3.2481   3.3473   3.4296   3.5872   3.7021   3.7952
     3.8660   4.8346   5.2319   6.2436   6.4577   6.5679   6.6833   6.9243
     6.9751   7.3637

          k = 1.2703 0.0645-0.2971 ( 36480 PWs)   bands (ev):

   -44.1602 -44.1602 -22.2982 -22.2982 -22.2613 -22.2613 -22.0750 -22.0750
    -6.7495  -6.7495  -6.2989  -6.2989  -5.6006  -5.6006  -5.1257  -5.1257
    -4.6328  -4.6328   0.2866   0.2866   0.7399   0.7399   1.0148   1.0148
     1.5793   1.5793   2.0622   2.0622   2.4994   2.4994   2.8546   2.8546
     2.9732   2.9732   3.2586   3.2586   3.5755   3.5755   3.7356   3.7356
     4.1756   4.1756   5.8837   5.8837   6.3346   6.3346   6.8829   6.8829
     7.1801   7.1802

          k =-0.5081-0.3869 0.0000 ( 36463 PWs)   bands (ev):

   -44.1611 -44.1611 -22.3031 -22.3031 -22.2369 -22.2369 -22.0781 -22.0781
    -7.1641  -6.8788  -6.6273  -6.4419  -6.4285  -5.1872  -5.1589  -4.7920
    -4.7161  -4.4124   0.4899   0.7401   0.7839   1.3583   1.3960   1.5816
     1.6232   1.8082   1.9042   2.2495   2.2694   2.3077   2.5498   3.1830
     3.2784   3.3203   3.3241   3.4442   3.7021   3.7490   3.9329   4.0575
     4.7113   5.2965   5.3423   5.6723   5.9877   6.6367   6.7296   6.7695
     7.1824   7.5630

          k =-0.5081-0.3869 0.1485 ( 36477 PWs)   bands (ev):

   -44.1611 -44.1611 -22.3031 -22.3031 -22.2369 -22.2369 -22.0781 -22.0781
    -7.1315  -6.9291  -6.6320  -6.5912  -6.1667  -5.4905  -4.9677  -4.7563
    -4.6993  -4.4398   0.5126   0.7740   0.9116   1.0882   1.4034   1.4357
     1.5672   1.6790   2.0646   2.0804   2.3412   2.6912   2.9233   3.1574
     3.2862   3.3119   3.3494   3.4682   3.6208   3.7317   3.7898   4.0995
     4.3306   4.6094   5.8916   6.0230   6.2120   6.5558   6.7558   6.7839
     7.0519   7.4797

          k =-0.5081-0.3869-0.2971 ( 36492 PWs)   bands (ev):

   -44.1611 -44.1611 -22.3031 -22.3031 -22.2369 -22.2369 -22.0781 -22.0781
    -7.0409  -7.0409  -6.6331  -6.6331  -5.8384  -5.8384  -4.8500  -4.8500
    -4.5381  -4.5381   0.6441   0.6441   1.0984   1.0984   1.2526   1.2526
     1.5235   1.5235   2.0610   2.0610   2.8543   2.8543   3.2129   3.2129
     3.2484   3.2484   3.3353   3.3353   3.6689   3.6689   3.8501   3.8501
     4.1683   4.1683   6.1205   6.1205   6.6222   6.6222   6.7505   6.7505
     7.0889   7.0889

          k =-0.2541-0.3224 0.0000 ( 36485 PWs)   bands (ev):

   -44.1621 -44.1621 -22.3079 -22.3079 -22.2126 -22.2126 -22.0813 -22.0812
    -7.4855  -7.0769  -6.7567  -6.7247  -6.6320  -5.2236  -5.1691  -4.9013
    -4.8142  -4.0043   0.6261   0.9632   0.9927   1.2245   1.3415   1.5340
     2.0040   2.2076   2.2506   2.3880   2.5159   3.1498   3.2419   3.3184
     3.5153   3.7001   3.7908   3.8137   3.9896   4.0392   4.1074   4.2059
     4.3899   4.6592   5.7627   6.0351   6.3835   6.5079   6.6846   6.8801
     6.9615   7.0099

          k =-0.2541-0.3224 0.1485 ( 36445 PWs)   bands (ev):

   -44.1621 -44.1621 -22.3079 -22.3079 -22.2126 -22.2126 -22.0813 -22.0812
    -7.4479  -7.1804  -6.7776  -6.7584  -6.4083  -5.6216  -4.9711  -4.8392
    -4.6922  -4.0934   0.6319   0.9455   1.0882   1.1139   1.2131   1.6794
     1.8904   2.2739   2.4084   2.5218   2.6349   2.9195   3.2360   3.3010
     3.3254   3.5013   3.7893   3.8758   3.9383   4.0441   4.0819   4.1404
     4.6847   5.0414   5.7678   5.8161   6.1796   6.2943   6.6834   6.7228
     7.1738   7.2547

          k =-0.2541-0.3224-0.2971 ( 36442 PWs)   bands (ev):

   -44.1621 -44.1621 -22.3079 -22.3079 -22.2126 -22.2126 -22.0812 -22.0812
    -7.3391  -7.3391  -6.7744  -6.7744  -6.0409  -6.0409  -4.8994  -4.8994
    -4.3420  -4.3420   0.7396   0.7396   1.1340   1.1340   1.3572   1.3572
     2.2475   2.2475   2.5175   2.5175   2.7894   2.7894   3.1623   3.1623
     3.2999   3.2999   3.7960   3.7960   3.9915   3.9915   4.1252   4.1252
     5.2151   5.2151   5.6587   5.6587   6.0055   6.0055   6.6861   6.6861
     7.3727   7.3728

          k = 0.0000-0.2579 0.0000 ( 36445 PWs)   bands (ev):

   -44.1625 -44.1625 -22.3098 -22.3098 -22.2024 -22.2024 -22.0826 -22.0825
    -7.6068  -7.1712  -6.8250  -6.7946  -6.6794  -5.2531  -5.1845  -4.9420
    -4.8562  -3.8692   0.5560   0.8105   0.8207   1.0753   1.5492   1.6651
     2.4194   2.5395   2.5910   3.0358   3.0475   3.1847   3.1986   3.2153
     3.2413   3.4995   3.7701   4.0017   4.0547   4.0762   4.1409   4.6245
     5.2479   5.4329   5.5686   5.6257   5.9131   6.1809   6.6101   6.6393
     6.9323   7.2557

          k = 0.0000-0.2579 0.1485 ( 36452 PWs)   bands (ev):

   -44.1625 -44.1625 -22.3098 -22.3098 -22.2024 -22.2024 -22.0826 -22.0825
    -7.5683  -7.2889  -6.8274  -6.7975  -6.4883  -5.6785  -4.9872  -4.8775
    -4.6947  -3.9819   0.5708   0.8405   0.9888   1.0830   1.1138   2.1047
     2.1807   2.4417   2.5630   3.0551   3.0654   3.1295   3.1502   3.1639
     3.6329   3.6516   3.6926   3.9328   4.0074   4.1254   4.1698   4.6474
     4.9804   5.0326   5.7091   5.9174   6.0978   6.1134   6.5249   6.7738
     6.8601   7.2440

          k = 0.0000-0.2579-0.2971 ( 36454 PWs)   bands (ev):

   -44.1625 -44.1625 -22.3098 -22.3098 -22.2024 -22.2024 -22.0825 -22.0825
    -7.4561  -7.4561  -6.8134  -6.8134  -6.1167  -6.1167  -4.9285  -4.9285
    -4.2844  -4.2844   0.7448   0.7448   0.9309   0.9309   1.5262   1.5262
     2.4994   2.4994   2.7333   2.7333   3.0844   3.0844   3.1148   3.1148
     3.7703   3.7703   3.8531   3.8531   4.0903   4.0903   4.4378   4.4378
     4.7453   4.7453   5.9003   5.9003   6.3251   6.3251   6.3882   6.3882
     7.1960   7.1960

          k = 1.5243 0.0000 0.0000 ( 36439 PWs)   bands (ev):

   -44.1611 -44.1611 -22.3031 -22.3031 -22.2369 -22.2369 -22.0781 -22.0781
    -7.1559  -6.8770  -6.6343  -6.4404  -6.4352  -5.1861  -5.1629  -4.7928
    -4.7142  -4.4128   0.4944   0.7337   0.7780   1.3614   1.5142   1.5481
     1.6131   1.8312   1.8814   2.2673   2.2713   2.3073   2.5599   3.1275
     3.2621   3.2965   3.3363   3.5090   3.6483   3.6901   3.9282   4.0704
     4.7065   5.2932   5.3177   5.6537   6.0128   6.6006   6.7985   6.8018
     7.1369   7.5312

          k = 1.5243 0.0000 0.1485 ( 36476 PWs)   bands (ev):

   -44.1611 -44.1611 -22.3031 -22.3031 -22.2369 -22.2369 -22.0781 -22.0781
    -7.1233  -6.9239  -6.6394  -6.6000  -6.1662  -5.4895  -4.9733  -4.7565
    -4.6974  -4.4391   0.5164   0.7726   0.9062   1.0865   1.4309   1.5155
     1.5295   1.6844   2.0701   2.0916   2.3345   2.7059   2.9357   3.1022
     3.2562   3.3205   3.3338   3.5515   3.5654   3.6983   3.7728   4.1068
     4.2920   4.6068   5.8672   6.0281   6.2118   6.5283   6.8023   6.8429
     7.0041   7.4912

          k = 1.5243 0.0000-0.2971 ( 36508 PWs)   bands (ev):

   -44.1611 -44.1611 -22.3031 -22.3031 -22.2369 -22.2369 -22.0781 -22.0781
    -7.0332  -7.0332  -6.6427  -6.6427  -5.8371  -5.8371  -4.8540  -4.8540
    -4.5358  -4.5358   0.6482   0.6482   1.0959   1.0959   1.2494   1.2494
     1.5662   1.5662   2.0586   2.0586   2.8636   2.8636   3.1553   3.1553
     3.2860   3.2860   3.3436   3.3436   3.6421   3.6421   3.8486   3.8486
     4.1397   4.1397   6.1049   6.1049   6.6172   6.6172   6.7705   6.7705
     7.0955   7.0955

          k =-0.2541-0.4514 0.0000 ( 36444 PWs)   bands (ev):

   -44.1621 -44.1621 -22.3079 -22.3079 -22.2126 -22.2126 -22.0813 -22.0812
    -7.4719  -7.0645  -6.7695  -6.7222  -6.6553  -5.2217  -5.1770  -4.9029
    -4.8106  -4.0054   0.6335   0.9744   1.1011   1.2698   1.4320   1.5314
     2.0425   2.1952   2.2758   2.2903   2.4338   3.1264   3.1986   3.2613
     3.5111   3.7294   3.7320   3.7850   3.9822   3.9939   4.0800   4.1800
     4.4438   4.5759   5.8245   6.0410   6.3966   6.4606   6.7337   6.8970
     6.9078   7.0022

          k =-0.2541-0.4514 0.1485 ( 36461 PWs)   bands (ev):

   -44.1621 -44.1621 -22.3079 -22.3079 -22.2126 -22.2126 -22.0813 -22.0812
    -7.4342  -7.1661  -6.7928  -6.7762  -6.4109  -5.6197  -4.9846  -4.8386
    -4.6864  -4.0931   0.6355   0.9651   1.1021   1.2500   1.2974   1.6998
     1.9034   2.2474   2.3079   2.4732   2.6546   2.9114   3.1838   3.1979
     3.3545   3.4962   3.8141   3.8262   3.9291   4.0057   4.0539   4.0946
     4.6958   5.0081   5.7629   5.8305   6.1912   6.2378   6.7465   6.7587
     7.1388   7.2501

          k =-0.2541-0.4514-0.2971 ( 36490 PWs)   bands (ev):

   -44.1621 -44.1621 -22.3079 -22.3079 -22.2126 -22.2126 -22.0812 -22.0812
    -7.3250  -7.3250  -6.7926  -6.7926  -6.0394  -6.0394  -4.9061  -4.9061
    -4.3388  -4.3388   0.7399   0.7399   1.2587   1.2587   1.3750   1.3750
     2.2230   2.2230   2.4459   2.4459   2.7991   2.7991   3.1682   3.1682
     3.2307   3.2307   3.7850   3.7850   4.0010   4.0010   4.0674   4.0674
     5.2080   5.2080   5.6383   5.6383   5.9778   5.9778   6.7509   6.7509
     7.3503   7.3504

          k = 0.0000-0.3869 0.0000 ( 36477 PWs)   bands (ev):

   -44.1625 -44.1625 -22.3098 -22.3098 -22.2024 -22.2024 -22.0826 -22.0825
    -7.5900  -7.1524  -6.8217  -6.8130  -6.7114  -5.2508  -5.1947  -4.9455
    -4.8506  -3.8708   0.5796   0.8362   0.9723   1.1429   1.6142   1.6868
     2.4298   2.5114   2.6099   2.9062   3.0225   3.0319   3.0922   3.2097
     3.3203   3.4732   3.8030   3.8946   3.9860   4.0069   4.0543   4.6294
     5.2322   5.3919   5.5858   5.7033   5.9440   6.2127   6.5348   6.6835
     6.9343   7.3003

          k = 0.0000-0.3869 0.1485 ( 36452 PWs)   bands (ev):

   -44.1625 -44.1625 -22.3098 -22.3098 -22.2024 -22.2024 -22.0826 -22.0825
    -7.5512  -7.2702  -6.8474  -6.8183  -6.4945  -5.6762  -5.0059  -4.8760
    -4.6871  -3.9817   0.5820   0.9611   1.0673   1.1149   1.1972   2.1328
     2.2031   2.4530   2.5803   2.8480   2.8781   3.0400   3.1390   3.2625
     3.6139   3.6292   3.6920   3.9101   4.0036   4.0040   4.0630   4.6522
     4.9777   5.0211   5.7418   5.9234   6.0880   6.1155   6.4891   6.7762
     6.9189   7.2035

          k = 0.0000-0.3869-0.2971 ( 36454 PWs)   bands (ev):

   -44.1625 -44.1625 -22.3098 -22.3098 -22.2024 -22.2024 -22.0825 -22.0825
    -7.4385  -7.4385  -6.8365  -6.8365  -6.1155  -6.1155  -4.9370  -4.9370
    -4.2806  -4.2806   0.7437   0.7437   1.0863   1.0863   1.5542   1.5542
     2.5133   2.5133   2.6729   2.6729   2.9779   2.9779   3.0704   3.0704
     3.7756   3.7756   3.8417   3.8417   3.9882   3.9882   4.4256   4.4256
     4.7484   4.7484   5.8631   5.8631   6.3451   6.3451   6.3916   6.3916
     7.1702   7.1703

          k =-2.0325 0.0000 0.0000 ( 36452 PWs)   bands (ev):

   -44.1625 -44.1625 -22.3098 -22.3098 -22.2024 -22.2024 -22.0826 -22.0825
    -7.5827  -7.1444  -6.8204  -6.8190  -6.7267  -5.2499  -5.1991  -4.9461
    -4.8490  -3.8715   0.5826   0.8428   1.0773   1.1542   1.6557   1.6952
     2.4343   2.4871   2.6182   2.7611   2.9387   3.0251   3.1231   3.2074
     3.4094   3.4621   3.7863   3.8337   3.9454   3.9707   4.0540   4.6315
     5.2258   5.3803   5.5929   5.7403   5.9577   6.2219   6.4849   6.7082
     6.9351   7.2044

          k =-2.0325 0.0000 0.1485 ( 36456 PWs)   bands (ev):

   -44.1625 -44.1625 -22.3098 -22.3098 -22.2024 -22.2024 -22.0826 -22.0825
    -7.5438  -7.2620  -6.8560  -6.8276  -6.4968  -5.6753  -5.0131  -4.8757
    -4.6841  -3.9816   0.5814   1.0067   1.0780   1.1580   1.2620   2.1441
     2.2095   2.4578   2.5879   2.7133   2.7822   3.0334   3.1342   3.3274
     3.6060   3.6083   3.7055   3.8789   3.9615   4.0020   4.0270   4.6543
     4.9765   5.0188   5.7593   5.9261   6.0700   6.1218   6.4740   6.7771
     6.9371   7.1877

          k =-2.0325 0.0000-0.2971 ( 36460 PWs)   bands (ev):

   -44.1625 -44.1625 -22.3098 -22.3098 -22.2024 -22.2024 -22.0825 -22.0825
    -7.4308  -7.4308  -6.8465  -6.8465  -6.1150  -6.1150  -4.9405  -4.9405
    -4.2791  -4.2791   0.7401   0.7401   1.1683   1.1683   1.5678   1.5678
     2.5193   2.5193   2.5914   2.5914   2.9607   2.9607   3.0645   3.0645
     3.7712   3.7712   3.8370   3.8370   3.9582   3.9582   4.4211   4.4211
     4.7497   4.7497   5.8467   5.8467   6.3508   6.3508   6.3930   6.3930
     7.1570   7.1570

     the Fermi energy is     5.2591 ev

!    total energy              =   -4240.92933527 Ry

     total all-electron energy =   -150287.623030 Ry
     estimated scf accuracy    <          5.7E-11 Ry
     smearing contrib. (-TS)   =       0.00001444 Ry
     internal energy E=F+TS    =   -4240.92934971 Ry

     The total energy is F=E-TS. E is the sum of the following terms:
     one-electron contribution =    -164.39146648 Ry
     hartree contribution      =     115.65587512 Ry
     xc contribution           =    -201.40141768 Ry
     ewald contribution        =    -223.28429053 Ry
     one-center paw contrib.   =   -3767.50805014 Ry

     convergence has been achieved in  16 iterations

     Forces acting on atoms (cartesian axes, Ry/au):

     atom    1 type  1   force =     0.00000000   -0.02627321    0.00000000
     atom    2 type  1   force =    -0.00000000    0.02627321    0.00000000
     atom    3 type  2   force =     0.00000000    0.00235667    0.00000000
     atom    4 type  2   force =     0.00000000   -0.00235667    0.00000000
     atom    5 type  2   force =     0.00000000    0.00580485   -0.00046823
     atom    6 type  2   force =     0.00000000   -0.00580485    0.00046823
     atom    7 type  2   force =     0.00000000    0.00580485    0.00046823
     atom    8 type  2   force =    -0.00000000   -0.00580485   -0.00046823
     atom    9 type  2   force =     0.00000000    0.02039742    0.01421053
     atom   10 type  2   force =     0.00000000   -0.02039742   -0.01421053
     atom   11 type  2   force =     0.00000000    0.02039742   -0.01421053
     atom   12 type  2   force =     0.00000000   -0.02039742    0.01421053

     Total force =     0.063240     Total SCF correction =     0.000010


     Computing stress (Cartesian axis) and pressure

          total   stress  (Ry/bohr**3)                   (kbar)     P=       -5.08
  -0.00001521   0.00000000   0.00000000           -2.24        0.00        0.00
   0.00000000  -0.00003433   0.00000000            0.00       -5.05        0.00
   0.00000000   0.00000000  -0.00005409            0.00        0.00       -7.96

 
     init_run     :     19.33s CPU     20.04s WALL (       1 calls)
     electrons    :    884.46s CPU    894.65s WALL (       1 calls)
     forces       :      6.65s CPU      6.89s WALL (       1 calls)
     stress       :     42.60s CPU     43.18s WALL (       1 calls)

     Called by init_run:
     wfcinit      :     14.73s CPU     14.91s WALL (       1 calls)
     potinit      :      1.32s CPU      1.37s WALL (       1 calls)
     hinit0       :      1.69s CPU      1.91s WALL (       1 calls)

     Called by electrons:
     c_bands      :    727.47s CPU    730.52s WALL (      17 calls)
     sum_band     :    132.17s CPU    136.05s WALL (      17 calls)
     v_of_rho     :      5.60s CPU      5.88s WALL (      17 calls)
     newd         :     13.98s CPU     17.15s WALL (      17 calls)
     PAW_pot      :      5.58s CPU      5.58s WALL (      17 calls)
     mix_rho      :      0.87s CPU      0.89s WALL (      17 calls)

     Called by c_bands:
     init_us_2    :     10.54s CPU     10.58s WALL (    2331 calls)
     cegterg      :    657.47s CPU    660.02s WALL (    1071 calls)

     Called by *egterg:
     cdiaghg      :     25.90s CPU     25.95s WALL (    7624 calls)
     h_psi        :    501.86s CPU    504.34s WALL (    7750 calls)
     s_psi        :     41.34s CPU     41.39s WALL (    7750 calls)
     g_psi        :      1.82s CPU      1.84s WALL (    6616 calls)

     Called by h_psi:
     h_psi:calbec :     36.26s CPU     36.31s WALL (    7750 calls)
     vloc_psi     :    421.57s CPU    423.85s WALL (    7750 calls)
     add_vuspsi   :     41.25s CPU     41.30s WALL (    7750 calls)

     General routines
     calbec       :     49.31s CPU     49.39s WALL (    9136 calls)
     fft          :      3.48s CPU      3.78s WALL (     245 calls)
     ffts         :      0.09s CPU      0.09s WALL (      34 calls)
     fftw         :    395.82s CPU    397.93s WALL (  399508 calls)
     interpolate  :      0.31s CPU      0.31s WALL (      17 calls)
 
     Parallel routines
 
     PWSCF        :  15m53.24s CPU  16m 5.06s WALL

 
   This run was terminated on:  15:40:31  19Nov2021            

=------------------------------------------------------------------------------=
   JOB DONE.
=------------------------------------------------------------------------------=
