
     Program PWSCF v.6.8 starts on 19Nov2021 at 15:18:28 

     This program is part of the open-source Quantum ESPRESSO suite
     for quantum simulation of materials; please cite
         "P. Giannozzi et al., J. Phys.:Condens. Matter 21 395502 (2009);
         "P. Giannozzi et al., J. Phys.:Condens. Matter 29 465901 (2017);
         "P. Giannozzi et al., J. Chem. Phys. 152 154105 (2020);
          URL http://www.quantum-espresso.org", 
     in publications or presentations arising from this work. More details at
     http://www.quantum-espresso.org/quote

     Parallel version (MPI), running on    10 processors

     MPI processes distributed on     1 nodes
     R & G space division:  proc/nbgrp/npool/nimage =      10
     72058 MiB available memory on the printing compute node when the environment starts
 
     Waiting for input...
     Reading input from standard input

     Current dimensions of program PWSCF are:
     Max number of different atomic species (ntypx) = 10
     Max number of k-points (npk) =  40000
     Max angular momentum in pseudopotentials (lmaxx) =  4
     file Zr.pbe-spn-kjpaw_psl.1.0.0.UPF: wavefunction(s)  4S 4P renormalized
     file Te.pbe-n-kjpaw_psl.1.0.0.UPF: wavefunction(s)  5S 5P renormalized
     Message from routine setup:
     using ibrav=0 with symmetry is DISCOURAGED, use correct ibrav instead

     Subspace diagonalization in iterative solution of the eigenvalue problem:
     a serial algorithm will be used

 
     Parallelization info
     --------------------
     sticks:   dense  smooth     PW     G-vecs:    dense   smooth      PW
     Min         734     293     87               115340    29174    4753
     Max         735     295     88               115345    29176    4760
     Sum        7345    2937    873              1153415   291749   47557
 
     Using Slab Decomposition
 


     bravais-lattice index     =            0
     lattice parameter (alat)  =      15.5510  a.u.
     unit-cell volume          =    3018.5011 (a.u.)^3
     number of atoms/cell      =           12
     number of atomic types    =            2
     number of electrons       =        84.00
     number of Kohn-Sham states=           50
     kinetic-energy cutoff     =      80.0000  Ry
     charge density cutoff     =     800.0000  Ry
     scf convergence threshold =      1.0E-10
     mixing beta               =       0.7000
     number of iterations used =            8  plain     mixing
     Exchange-correlation= SLA  PW   PBX  PBC
                           (   1   4   3   4   0   0   0)

     celldm(1)=  15.551040  celldm(2)=   0.000000  celldm(3)=   0.000000
     celldm(4)=   0.000000  celldm(5)=   0.000000  celldm(6)=   0.000000

     crystal axes: (cart. coord. in units of alat)
               a(1) = (   0.246007  -0.969268   0.000000 )  
               a(2) = (   0.246007   0.969268   0.000000 )  
               a(3) = (   0.000000   0.000000   1.683031 )  

     reciprocal axes: (cart. coord. in units 2 pi/alat)
               b(1) = (  2.032465 -0.515853  0.000000 )  
               b(2) = (  2.032465  0.515853  0.000000 )  
               b(3) = (  0.000000  0.000000  0.594166 )  


     PseudoPot. # 1 for Zr read from file:
     pseudo/Zr.pbe-spn-kjpaw_psl.1.0.0.UPF
     MD5 check sum: 02112c41713a0468aff2bb39ef194e36
     Pseudo is Projector augmented-wave + core cor, Zval = 12.0
     Generated using &quot;atomic&quot; code by A. Dal Corso  v.6.2.2
     Shape of augmentation charge: PSQ
     Using radial grid of 1225 points,  6 beta functions with: 
                l(1) =   0
                l(2) =   0
                l(3) =   1
                l(4) =   1
                l(5) =   2
                l(6) =   2
     Q(r) pseudized with 0 coefficients 


     PseudoPot. # 2 for Te read from file:
     pseudo/Te.pbe-n-kjpaw_psl.1.0.0.UPF
     MD5 check sum: 66247bff2bd9dbf220fbb0bf5ab56e9d
     Pseudo is Projector augmented-wave + core cor, Zval =  6.0
     Generated using &quot;atomic&quot; code by A. Dal Corso  v.6.3
     Shape of augmentation charge: PSQ
     Using radial grid of 1245 points,  6 beta functions with: 
                l(1) =   0
                l(2) =   0
                l(3) =   1
                l(4) =   1
                l(5) =   2
                l(6) =   2
     Q(r) pseudized with 0 coefficients 


     atomic species   valence    mass     pseudopotential
        Zr            12.00    91.22000     Zr( 1.00)
        Te             6.00   127.60000     Te( 1.00)

      8 Sym. Ops., with inversion, found ( 4 have fractional translation)



   Cartesian axes

     site n.     atom                  positions (alat units)
         1           Zr  tau(   1) = (   0.0000000   0.6105164   0.4207578  )
         2           Zr  tau(   2) = (   0.2460067   0.3587518   1.2622733  )
         3           Te  tau(   3) = (   0.2460067   0.3343470   0.4207578  )
         4           Te  tau(   4) = (   0.0000000   0.6349211   1.2622733  )
         5           Te  tau(   5) = (   0.2460067   0.8075912   0.2505381  )
         6           Te  tau(   6) = (   0.0000000   0.1616769   1.4324930  )
         7           Te  tau(   7) = (   0.2460067   0.8075912   0.5909775  )
         8           Te  tau(   8) = (   0.0000000   0.1616769   1.0920536  )
         9           Te  tau(   9) = (   0.0000000   0.4062923   0.7226778  )
        10           Te  tau(  10) = (   0.2460067   0.5629759   0.9603533  )
        11           Te  tau(  11) = (   0.0000000   0.4062923   0.1188378  )
        12           Te  tau(  12) = (   0.2460067   0.5629759   1.5641933  )

     number of k points=    63  Methfessel-Paxton smearing, width (Ry)=  0.0030
                       cart. coord. in units 2pi/alat
        k(    1) = (   0.0000000   0.0000000   0.0000000), wk =   0.0078125
        k(    2) = (   0.0000000   0.0000000   0.1485415), wk =   0.0156250
        k(    3) = (   0.0000000   0.0000000  -0.2970830), wk =   0.0078125
        k(    4) = (   0.2540581   0.0644816   0.0000000), wk =   0.0312500
        k(    5) = (   0.2540581   0.0644816   0.1485415), wk =   0.0625000
        k(    6) = (   0.2540581   0.0644816  -0.2970830), wk =   0.0312500
        k(    7) = (   0.5081162   0.1289633   0.0000000), wk =   0.0312500
        k(    8) = (   0.5081162   0.1289633   0.1485415), wk =   0.0625000
        k(    9) = (   0.5081162   0.1289633  -0.2970830), wk =   0.0312500
        k(   10) = (   0.7621743   0.1934449   0.0000000), wk =   0.0312500
        k(   11) = (   0.7621743   0.1934449   0.1485415), wk =   0.0625000
        k(   12) = (   0.7621743   0.1934449  -0.2970830), wk =   0.0312500
        k(   13) = (  -1.0162324  -0.2579266   0.0000000), wk =   0.0156250
        k(   14) = (  -1.0162324  -0.2579266   0.1485415), wk =   0.0312500
        k(   15) = (  -1.0162324  -0.2579266  -0.2970830), wk =   0.0156250
        k(   16) = (   0.5081162   0.0000000   0.0000000), wk =   0.0156250
        k(   17) = (   0.5081162   0.0000000   0.1485415), wk =   0.0312500
        k(   18) = (   0.5081162   0.0000000  -0.2970830), wk =   0.0156250
        k(   19) = (   0.7621743   0.0644816   0.0000000), wk =   0.0312500
        k(   20) = (   0.7621743   0.0644816   0.1485415), wk =   0.0625000
        k(   21) = (   0.7621743   0.0644816  -0.2970830), wk =   0.0312500
        k(   22) = (   1.0162324   0.1289633   0.0000000), wk =   0.0312500
        k(   23) = (   1.0162324   0.1289633   0.1485415), wk =   0.0625000
        k(   24) = (   1.0162324   0.1289633  -0.2970830), wk =   0.0312500
        k(   25) = (  -0.7621743  -0.3224082   0.0000000), wk =   0.0312500
        k(   26) = (  -0.7621743  -0.3224082   0.1485415), wk =   0.0625000
        k(   27) = (  -0.7621743  -0.3224082  -0.2970830), wk =   0.0312500
        k(   28) = (  -0.5081162  -0.2579266   0.0000000), wk =   0.0312500
        k(   29) = (  -0.5081162  -0.2579266   0.1485415), wk =   0.0625000
        k(   30) = (  -0.5081162  -0.2579266  -0.2970830), wk =   0.0312500
        k(   31) = (  -0.2540581  -0.1934449   0.0000000), wk =   0.0312500
        k(   32) = (  -0.2540581  -0.1934449   0.1485415), wk =   0.0625000
        k(   33) = (  -0.2540581  -0.1934449  -0.2970830), wk =   0.0312500
        k(   34) = (   0.0000000  -0.1289633   0.0000000), wk =   0.0156250
        k(   35) = (   0.0000000  -0.1289633   0.1485415), wk =   0.0312500
        k(   36) = (   0.0000000  -0.1289633  -0.2970830), wk =   0.0156250
        k(   37) = (   1.0162324   0.0000000   0.0000000), wk =   0.0156250
        k(   38) = (   1.0162324   0.0000000   0.1485415), wk =   0.0312500
        k(   39) = (   1.0162324   0.0000000  -0.2970830), wk =   0.0156250
        k(   40) = (   1.2702905   0.0644816   0.0000000), wk =   0.0312500
        k(   41) = (   1.2702905   0.0644816   0.1485415), wk =   0.0625000
        k(   42) = (   1.2702905   0.0644816  -0.2970830), wk =   0.0312500
        k(   43) = (  -0.5081162  -0.3868899   0.0000000), wk =   0.0312500
        k(   44) = (  -0.5081162  -0.3868899   0.1485415), wk =   0.0625000
        k(   45) = (  -0.5081162  -0.3868899  -0.2970830), wk =   0.0312500
        k(   46) = (  -0.2540581  -0.3224082   0.0000000), wk =   0.0312500
        k(   47) = (  -0.2540581  -0.3224082   0.1485415), wk =   0.0625000
        k(   48) = (  -0.2540581  -0.3224082  -0.2970830), wk =   0.0312500
        k(   49) = (   0.0000000  -0.2579266   0.0000000), wk =   0.0156250
        k(   50) = (   0.0000000  -0.2579266   0.1485415), wk =   0.0312500
        k(   51) = (   0.0000000  -0.2579266  -0.2970830), wk =   0.0156250
        k(   52) = (   1.5243485   0.0000000   0.0000000), wk =   0.0156250
        k(   53) = (   1.5243485   0.0000000   0.1485415), wk =   0.0312500
        k(   54) = (   1.5243485   0.0000000  -0.2970830), wk =   0.0156250
        k(   55) = (  -0.2540581  -0.4513715   0.0000000), wk =   0.0312500
        k(   56) = (  -0.2540581  -0.4513715   0.1485415), wk =   0.0625000
        k(   57) = (  -0.2540581  -0.4513715  -0.2970830), wk =   0.0312500
        k(   58) = (   0.0000000  -0.3868899   0.0000000), wk =   0.0156250
        k(   59) = (   0.0000000  -0.3868899   0.1485415), wk =   0.0312500
        k(   60) = (   0.0000000  -0.3868899  -0.2970830), wk =   0.0156250
        k(   61) = (  -2.0324647   0.0000000   0.0000000), wk =   0.0078125
        k(   62) = (  -2.0324647   0.0000000   0.1485415), wk =   0.0156250
        k(   63) = (  -2.0324647   0.0000000  -0.2970830), wk =   0.0078125

     Dense  grid:  1153415 G-vectors     FFT dimensions: ( 144, 144, 240)

     Smooth grid:   291749 G-vectors     FFT dimensions: (  90,  90, 150)

     Estimated max dynamical RAM per process >     657.19 MB

     Estimated total dynamical RAM >       6.42 GB

     Initial potential from superposition of free atoms

     starting charge   83.99353, renormalised to   84.00000
     Starting wfcs are   66 randomized atomic wfcs
     Checking if some PAW data can be deallocated... 

     total cpu time spent up to now is       18.7 secs

     Self-consistent Calculation

     iteration #  1     ecut=    80.00 Ry     beta= 0.70
     Davidson diagonalization with overlap
     ethr =  1.00E-02,  avg # of iterations =  2.0

     Threshold (ethr) on eigenvalues was too large:
     Diagonalizing with lowered threshold

     Davidson diagonalization with overlap
     ethr =  3.84E-04,  avg # of iterations =  4.1

     total cpu time spent up to now is      101.3 secs

     WARNING: integrated charge=    83.99844606, expected=    84.00000000

     total energy              =   -4240.72074295 Ry
     estimated scf accuracy    <       0.42798404 Ry

     iteration #  2     ecut=    80.00 Ry     beta= 0.70
     Davidson diagonalization with overlap
     ethr =  5.10E-04,  avg # of iterations =  7.4

     total cpu time spent up to now is      160.3 secs

     WARNING: integrated charge=    83.99876541, expected=    84.00000000

     total energy              =   -4240.62374129 Ry
     estimated scf accuracy    <       2.17597461 Ry

     iteration #  3     ecut=    80.00 Ry     beta= 0.70
     Davidson diagonalization with overlap
     ethr =  5.10E-04,  avg # of iterations =  5.2

     total cpu time spent up to now is      211.3 secs

     WARNING: integrated charge=    83.99961731, expected=    84.00000000

     total energy              =   -4240.91942234 Ry
     estimated scf accuracy    <       0.01968707 Ry

     iteration #  4     ecut=    80.00 Ry     beta= 0.70
     Davidson diagonalization with overlap
     c_bands:  1 eigenvalues not converged
     c_bands:  1 eigenvalues not converged
     c_bands:  2 eigenvalues not converged
     c_bands:  1 eigenvalues not converged
     c_bands:  1 eigenvalues not converged
     c_bands:  1 eigenvalues not converged
     c_bands:  1 eigenvalues not converged
     c_bands:  1 eigenvalues not converged
     c_bands:  2 eigenvalues not converged
     c_bands:  1 eigenvalues not converged
     c_bands:  1 eigenvalues not converged
     ethr =  2.34E-05,  avg # of iterations = 16.6

     total cpu time spent up to now is      300.8 secs

     WARNING: integrated charge=    83.99980875, expected=    84.00000000

     total energy              =   -4240.93640934 Ry
     estimated scf accuracy    <       0.10416225 Ry

     iteration #  5     ecut=    80.00 Ry     beta= 0.70
     Davidson diagonalization with overlap
     ethr =  2.34E-05,  avg # of iterations =  5.6

     total cpu time spent up to now is      346.7 secs

     WARNING: integrated charge=    83.99985818, expected=    84.00000000

     total energy              =   -4240.93954426 Ry
     estimated scf accuracy    <       0.02303950 Ry

     iteration #  6     ecut=    80.00 Ry     beta= 0.70
     Davidson diagonalization with overlap
     ethr =  2.34E-05,  avg # of iterations =  2.5

     total cpu time spent up to now is      385.3 secs

     WARNING: integrated charge=    83.99995091, expected=    84.00000000

     total energy              =   -4240.94032719 Ry
     estimated scf accuracy    <       0.00369625 Ry

     iteration #  7     ecut=    80.00 Ry     beta= 0.70
     Davidson diagonalization with overlap
     c_bands:  1 eigenvalues not converged
     c_bands:  1 eigenvalues not converged
     c_bands:  1 eigenvalues not converged
     c_bands:  1 eigenvalues not converged
     ethr =  4.40E-06,  avg # of iterations = 12.4

     total cpu time spent up to now is      451.2 secs

     WARNING: integrated charge=    83.99999088, expected=    84.00000000

     total energy              =   -4240.94214554 Ry
     estimated scf accuracy    <       0.00256729 Ry

     iteration #  8     ecut=    80.00 Ry     beta= 0.70
     Davidson diagonalization with overlap
     ethr =  3.06E-06,  avg # of iterations =  2.3

     total cpu time spent up to now is      488.1 secs

     total energy              =   -4240.94215047 Ry
     estimated scf accuracy    <       0.00059753 Ry

     iteration #  9     ecut=    80.00 Ry     beta= 0.70
     Davidson diagonalization with overlap
     ethr =  7.11E-07,  avg # of iterations =  5.8

     total cpu time spent up to now is      532.7 secs

     total energy              =   -4240.94226630 Ry
     estimated scf accuracy    <       0.00001238 Ry

     iteration # 10     ecut=    80.00 Ry     beta= 0.70
     Davidson diagonalization with overlap
     c_bands:  1 eigenvalues not converged
     c_bands:  1 eigenvalues not converged
     c_bands:  1 eigenvalues not converged
     ethr =  1.47E-08,  avg # of iterations = 10.6

     total cpu time spent up to now is      602.0 secs

     total energy              =   -4240.94229373 Ry
     estimated scf accuracy    <       0.00001828 Ry

     iteration # 11     ecut=    80.00 Ry     beta= 0.70
     Davidson diagonalization with overlap
     ethr =  1.47E-08,  avg # of iterations =  3.1

     total cpu time spent up to now is      642.8 secs

     total energy              =   -4240.94229639 Ry
     estimated scf accuracy    <       0.00000012 Ry

     iteration # 12     ecut=    80.00 Ry     beta= 0.70
     Davidson diagonalization with overlap
     ethr =  1.39E-10,  avg # of iterations = 11.6

     total cpu time spent up to now is      724.6 secs

     total energy              =   -4240.94229663 Ry
     estimated scf accuracy    <       0.00000144 Ry

     iteration # 13     ecut=    80.00 Ry     beta= 0.70
     Davidson diagonalization with overlap
     ethr =  1.39E-10,  avg # of iterations =  5.3

     total cpu time spent up to now is      775.1 secs

     total energy              =   -4240.94229676 Ry
     estimated scf accuracy    <       0.00000005 Ry

     iteration # 14     ecut=    80.00 Ry     beta= 0.70
     Davidson diagonalization with overlap
     ethr =  6.40E-11,  avg # of iterations =  6.2

     total cpu time spent up to now is      823.2 secs

     total energy              =   -4240.94229677 Ry
     estimated scf accuracy    <          4.3E-09 Ry

     iteration # 15     ecut=    80.00 Ry     beta= 0.70
     Davidson diagonalization with overlap
     ethr =  5.07E-12,  avg # of iterations =  5.0

     total cpu time spent up to now is      866.2 secs

     total energy              =   -4240.94229677 Ry
     estimated scf accuracy    <          3.4E-09 Ry

     iteration # 16     ecut=    80.00 Ry     beta= 0.70
     Davidson diagonalization with overlap
     ethr =  4.01E-12,  avg # of iterations =  3.5

     total cpu time spent up to now is      906.2 secs

     End of self-consistent calculation

          k = 0.0000 0.0000 0.0000 ( 36359 PWs)   bands (ev):

   -44.1503 -44.1503 -22.2908 -22.2908 -22.1880 -22.1880 -22.0724 -22.0724
    -7.6713  -7.1579  -7.0544  -6.7843  -6.5185  -5.3342  -5.0959  -4.8961
    -4.8413  -3.8610   0.4340   0.6971   0.7687   1.0682   1.4969   1.5757
     2.4150   2.4642   2.6403   3.0104   3.0228   3.0245   3.1187   3.4984
     3.5749   3.6364   3.8728   4.0485   4.1280   4.2936   4.3218   4.6291
     5.0931   5.5514   5.5825   5.6438   5.8516   6.0259   6.3661   6.8080
     6.9391   7.2915

          k = 0.0000 0.0000 0.1485 ( 36415 PWs)   bands (ev):

   -44.1503 -44.1503 -22.2908 -22.2908 -22.1880 -22.1880 -22.0724 -22.0724
    -7.6322  -7.3366  -6.9115  -6.7938  -6.4107  -5.6929  -4.9136  -4.8526
    -4.7029  -3.9781   0.4793   0.7350   0.9122   1.0505   1.0535   2.0101
     2.1089   2.4409   2.5974   3.0203   3.0228   3.0977   3.3475   3.3663
     3.6694   3.7278   3.8572   4.0408   4.0788   4.3134   4.3349   4.6435
     4.9022   5.0546   5.7276   5.9261   6.0227   6.0469   6.5995   6.6788
     6.7719   7.2658

          k = 0.0000 0.0000-0.2971 ( 36410 PWs)   bands (ev):

   -44.1503 -44.1503 -22.2908 -22.2908 -22.1880 -22.1880 -22.0724 -22.0724
    -7.5172  -7.5172  -6.8266  -6.8266  -6.1046  -6.1046  -4.8801  -4.8801
    -4.2887  -4.2887   0.6677   0.6677   0.8653   0.8653   1.4322   1.4322
     2.5112   2.5112   2.6911   2.6911   3.0199   3.0199   3.3830   3.3830
     3.8409   3.8409   3.9229   3.9229   4.3215   4.3215   4.4189   4.4189
     4.7138   4.7138   5.9623   5.9623   6.2336   6.2336   6.3801   6.3801
     7.1440   7.1440

          k = 0.2541 0.0645 0.0000 ( 36396 PWs)   bands (ev):

   -44.1499 -44.1499 -22.2888 -22.2888 -22.1980 -22.1980 -22.0712 -22.0711
    -7.5574  -7.0772  -6.9509  -6.7380  -6.4581  -5.2978  -5.0875  -4.8551
    -4.7994  -3.9998   0.5212   0.8315   0.9044   1.1867   1.3022   1.4642
     1.9252   2.0645   2.2168   2.5314   2.5875   3.0306   3.4617   3.6720
     3.6867   3.7103   3.7591   3.7990   4.0178   4.1713   4.2239   4.2614
     4.4652   4.6914   5.7042   5.9895   6.2784   6.5452   6.6216   6.8341
     7.0047   7.1449

          k = 0.2541 0.0645 0.1485 ( 36423 PWs)   bands (ev):

   -44.1499 -44.1499 -22.2888 -22.2888 -22.1980 -22.1980 -22.0712 -22.0711
    -7.5193  -7.2349  -6.8407  -6.7463  -6.3416  -5.6378  -4.8916  -4.8127
    -4.7054  -4.0937   0.5540   0.8718   0.9792   0.9913   1.1450   1.5873
     1.8576   2.3172   2.4467   2.5454   2.5533   2.9230   3.2672   3.3026
     3.6450   3.6794   3.8491   3.8957   4.0031   4.0975   4.2358   4.2885
     4.6916   5.0200   5.8084   5.8299   6.2131   6.2732   6.4723   6.6811
     7.2581   7.2981

          k = 0.2541 0.0645-0.2971 ( 36436 PWs)   bands (ev):

   -44.1499 -44.1499 -22.2888 -22.2888 -22.1980 -22.1980 -22.0712 -22.0712
    -7.4078  -7.4078  -6.7737  -6.7737  -6.0345  -6.0345  -4.8457  -4.8457
    -4.3517  -4.3517   0.6987   0.6987   0.9749   0.9749   1.2757   1.2757
     2.2992   2.2992   2.5695   2.5695   2.6867   2.6867   3.1050   3.1050
     3.5944   3.5944   3.8717   3.8717   4.0400   4.0400   4.2853   4.2853
     5.1661   5.1661   5.7454   5.7454   6.0886   6.0886   6.4623   6.4623
     7.4390   7.4392

          k = 0.5081 0.1290 0.0000 ( 36499 PWs)   bands (ev):

   -44.1490 -44.1490 -22.2841 -22.2841 -22.2220 -22.2220 -22.0682 -22.0681
    -7.2387  -6.8874  -6.6531  -6.6084  -6.2624  -5.2311  -5.1158  -4.7471
    -4.6960  -4.4190   0.5291   0.6946   0.7166   1.1917   1.2868   1.5061
     1.6673   1.8166   2.0055   2.1227   2.1696   2.3065   2.3657   3.2626
     3.3667   3.4291   3.4733   3.5776   3.7654   3.8612   3.9458   4.1546
     4.5985   5.2907   5.4017   5.8963   5.9444   6.5474   6.5599   6.8555
     7.3921   7.5668

          k = 0.5081 0.1290 0.1485 ( 36476 PWs)   bands (ev):

   -44.1490 -44.1490 -22.2841 -22.2841 -22.2220 -22.2220 -22.0682 -22.0681
    -7.2049  -6.9726  -6.6418  -6.6131  -6.1302  -5.5064  -4.9207  -4.7243
    -4.6905  -4.4517   0.5156   0.7306   0.8593   1.0768   1.2291   1.4286
     1.4783   1.6559   2.0344   2.0757   2.3235   2.5347   2.8214   3.2908
     3.3627   3.4119   3.4800   3.5812   3.6478   3.7672   3.8463   4.2149
     4.3870   4.5789   6.0359   6.1027   6.2245   6.5535   6.6020   6.7296
     7.2349   7.4869

          k = 0.5081 0.1290-0.2971 ( 36466 PWs)   bands (ev):

   -44.1490 -44.1490 -22.2841 -22.2841 -22.2220 -22.2220 -22.0682 -22.0682
    -7.1084  -7.1084  -6.6260  -6.6260  -5.8420  -5.8420  -4.7961  -4.7961
    -4.5541  -4.5541   0.6122   0.6122   1.0887   1.0887   1.2336   1.2336
     1.3712   1.3712   2.0587   2.0587   2.7659   2.7659   3.1172   3.1172
     3.3483   3.3483   3.5498   3.5498   3.7021   3.7021   3.8310   3.8310
     4.3015   4.3015   6.2702   6.2702   6.5369   6.5369   6.7792   6.7792
     7.0942   7.0942

          k = 0.7622 0.1934 0.0000 ( 36521 PWs)   bands (ev):

   -44.1481 -44.1481 -22.2793 -22.2792 -22.2459 -22.2459 -22.0652 -22.0652
    -6.8464  -6.7206  -6.3521  -6.2060  -5.9174  -5.3044  -5.2612  -5.0614
    -4.6253  -4.5901   0.0081   0.2437   0.6453   1.1292   1.1445   1.2375
     1.4763   1.5939   1.9173   1.9688   2.2714   2.4154   2.4828   2.7528
     2.7868   3.2578   3.3035   3.3663   3.6370   3.6707   3.7786   3.8022
     3.9604   4.5677   5.7708   6.1889   6.2656   6.7071   6.7412   6.8384
     7.2162   7.5708

          k = 0.7622 0.1934 0.1485 ( 36503 PWs)   bands (ev):

   -44.1481 -44.1481 -22.2792 -22.2792 -22.2459 -22.2459 -22.0652 -22.0652
    -6.8281  -6.7382  -6.3475  -6.2630  -5.8074  -5.4200  -5.1957  -5.0813
    -4.6148  -4.5909   0.0763   0.3558   0.5230   0.9550   1.1415   1.2069
     1.4918   1.6629   1.7456   2.0829   2.1355   2.6397   2.6855   2.7943
     2.8668   3.1412   3.2735   3.3815   3.4848   3.6312   3.6717   3.9004
     3.9938   4.7019   5.4257   6.2556   6.5597   6.6095   6.7670   6.9121
     6.9924   7.4812

          k = 0.7622 0.1934-0.2971 ( 36522 PWs)   bands (ev):

   -44.1481 -44.1481 -22.2792 -22.2792 -22.2459 -22.2459 -22.0652 -22.0652
    -6.7829  -6.7829  -6.3238  -6.3238  -5.6081  -5.6081  -5.1314  -5.1314
    -4.5982  -4.5982   0.2649   0.2649   0.6786   0.6786   1.0718   1.0718
     1.5742   1.5742   1.9882   1.9882   2.3695   2.3695   2.7967   2.7967
     2.9957   2.9957   3.3866   3.3866   3.5738   3.5738   3.8043   3.8043
     4.1770   4.1770   5.9967   5.9967   6.3776   6.3776   6.8548   6.8548
     7.3202   7.3202

          k =-1.0162-0.2579 0.0000 ( 36506 PWs)   bands (ev):

   -44.1477 -44.1477 -22.2771 -22.2771 -22.2560 -22.2560 -22.0639 -22.0639
    -6.6890  -6.6690  -5.8063  -5.7952  -5.7113  -5.6998  -5.4982  -5.4977
    -4.5678  -4.5480   0.0719   0.0978   0.4186   0.4381   1.0120   1.0205
     1.4677   1.6741   2.2307   2.3570   2.3573   2.3617   2.7895   2.8227
     2.8235   2.9185   3.2619   3.2643   3.2970   3.4839   3.6048   3.6243
     3.8166   3.9526   6.3850   6.4136   6.4690   6.5533   6.9445   7.0152
     7.0287   7.0289

          k =-1.0162-0.2579 0.1485 ( 36506 PWs)   bands (ev):

   -44.1477 -44.1477 -22.2771 -22.2771 -22.2560 -22.2560 -22.0639 -22.0639
    -6.6855  -6.6712  -5.8171  -5.8082  -5.7066  -5.7003  -5.4846  -5.4841
    -4.5702  -4.5562  -0.0179  -0.0094   0.6387   0.6440   1.0268   1.0521
     1.4640   1.5821   1.9292   2.0036   2.3706   2.3823   2.7458   2.7473
     2.9486   2.9814   3.1647   3.2165   3.5510   3.5541   3.7090   3.7357
     4.0918   4.1132   5.8719   5.8811   6.3986   6.4717   6.9302   6.9673
     7.2394   7.2658

          k =-1.0162-0.2579-0.2971 ( 36528 PWs)   bands (ev):

   -44.1477 -44.1477 -22.2771 -22.2771 -22.2560 -22.2560 -22.0639 -22.0639
    -6.6777  -6.6777  -5.8234  -5.8234  -5.7019  -5.7019  -5.4714  -5.4714
    -4.5686  -4.5686  -0.0742  -0.0742   0.9104   0.9104   1.0092   1.0092
     1.5687   1.5687   1.5791   1.5791   2.3718   2.3718   2.7833   2.7833
     2.9318   2.9318   3.1914   3.1914   3.6003   3.6003   3.7776   3.7776
     4.5610   4.5610   5.3116   5.3116   6.3629   6.3629   6.9695   6.9695
     7.3117   7.3117

          k = 0.5081 0.0000 0.0000 ( 36503 PWs)   bands (ev):

   -44.1490 -44.1490 -22.2841 -22.2841 -22.2220 -22.2220 -22.0682 -22.0681
    -7.2445  -6.8894  -6.6542  -6.6015  -6.2579  -5.2319  -5.1124  -4.7428
    -4.7014  -4.4186   0.5285   0.7012   0.7127   1.1601   1.2817   1.4852
     1.6713   1.8228   2.0193   2.1100   2.1308   2.2997   2.3732   3.2454
     3.3803   3.4107   3.5289   3.5981   3.7718   3.8472   3.9878   4.1918
     4.6007   5.2910   5.4076   5.9230   5.9322   6.5076   6.5087   6.8908
     7.4183   7.5752

          k = 0.5081 0.0000 0.1485 ( 36453 PWs)   bands (ev):

   -44.1490 -44.1490 -22.2841 -22.2841 -22.2220 -22.2220 -22.0682 -22.0681
    -7.2106  -6.9768  -6.6378  -6.6065  -6.1285  -5.5071  -4.9148  -4.7262
    -4.6910  -4.4526   0.5143   0.7255   0.8646   1.0785   1.2019   1.4399
     1.4426   1.6504   2.0293   2.0804   2.3275   2.5057   2.8141   3.2776
     3.3600   3.4418   3.4912   3.5972   3.6428   3.8221   3.8426   4.2502
     4.4021   4.5788   6.0353   6.1198   6.2306   6.5027   6.5664   6.7605
     7.2600   7.4919

          k = 0.5081 0.0000-0.2971 ( 36452 PWs)   bands (ev):

   -44.1490 -44.1490 -22.2841 -22.2841 -22.2220 -22.2220 -22.0682 -22.0682
    -7.1139  -7.1139  -6.6194  -6.6194  -5.8424  -5.8424  -4.7920  -4.7920
    -4.5568  -4.5568   0.6080   0.6080   1.0889   1.0889   1.2583   1.2583
     1.3221   1.3221   2.0589   2.0589   2.7569   2.7569   3.0961   3.0961
     3.3425   3.3425   3.5983   3.5983   3.7143   3.7143   3.8341   3.8341
     4.3254   4.3254   6.2858   6.2858   6.5021   6.5021   6.7943   6.7943
     7.0960   7.0960

          k = 0.7622 0.0645 0.0000 ( 36505 PWs)   bands (ev):

   -44.1481 -44.1481 -22.2792 -22.2792 -22.2459 -22.2459 -22.0652 -22.0652
    -6.8557  -6.7188  -6.3428  -6.2083  -5.9167  -5.2999  -5.2619  -5.0610
    -4.6183  -4.5983   0.0024   0.2552   0.6691   1.1324   1.1624   1.2518
     1.4343   1.5510   1.8940   1.9826   2.2362   2.3844   2.4657   2.7254
     2.7714   3.3142   3.3334   3.3750   3.6078   3.6565   3.8261   3.8283
     3.9784   4.6098   5.7691   6.2037   6.2301   6.6755   6.7951   6.7987
     7.2384   7.5755

          k = 0.7622 0.0645 0.1485 ( 36509 PWs)   bands (ev):

   -44.1481 -44.1481 -22.2792 -22.2792 -22.2459 -22.2459 -22.0652 -22.0652
    -6.8365  -6.7389  -6.3386  -6.2613  -5.8085  -5.4201  -5.1927  -5.0804
    -4.6100  -4.5967   0.0745   0.3622   0.5324   0.9758   1.1405   1.2211
     1.4547   1.6605   1.7719   2.0104   2.0637   2.6543   2.6750   2.7652
     2.8542   3.1422   3.3392   3.3998   3.4497   3.6481   3.6958   3.9179
     4.0389   4.7009   5.4525   6.2387   6.5647   6.6003   6.7839   6.9089
     6.9719   7.4998

          k = 0.7622 0.0645-0.2971 ( 36472 PWs)   bands (ev):

   -44.1481 -44.1481 -22.2792 -22.2792 -22.2459 -22.2459 -22.0652 -22.0652
    -6.7883  -6.7883  -6.3171  -6.3171  -5.6097  -5.6097  -5.1291  -5.1291
    -4.5986  -4.5986   0.2689   0.2689   0.6743   0.6743   1.0971   1.0971
     1.5683   1.5683   1.9390   1.9390   2.3344   2.3344   2.7916   2.7916
     2.9901   2.9901   3.4528   3.4528   3.5703   3.5703   3.7953   3.7953
     4.2009   4.2009   6.0210   6.0210   6.3790   6.3790   6.8205   6.8205
     7.3465   7.3465

          k = 1.0162 0.1290 0.0000 ( 36514 PWs)   bands (ev):

   -44.1477 -44.1477 -22.2771 -22.2771 -22.2560 -22.2560 -22.0639 -22.0639
    -6.6890  -6.6690  -5.8058  -5.7956  -5.7114  -5.6997  -5.4985  -5.4974
    -4.5678  -4.5480   0.0660   0.1038   0.4130   0.4439   1.0067   1.0273
     1.4728   1.6654   2.2337   2.3460   2.3499   2.3654   2.7903   2.8174
     2.8542   2.9155   3.2374   3.2772   3.3072   3.4785   3.6095   3.6215
     3.8002   3.9641   6.3802   6.4195   6.4641   6.5588   6.9561   7.0177
     7.0228   7.0308

          k = 1.0162 0.1290 0.1485 ( 36524 PWs)   bands (ev):

   -44.1477 -44.1477 -22.2771 -22.2771 -22.2560 -22.2560 -22.0639 -22.0639
    -6.6855  -6.6712  -5.8168  -5.8084  -5.7066  -5.7003  -5.4851  -5.4837
    -4.5702  -4.5562  -0.0200  -0.0077   0.6381   0.6452   1.0308   1.0490
     1.4685   1.5789   1.9367   1.9917   2.3641   2.3783   2.6990   2.8026
     2.9630   2.9980   3.1408   3.2165   3.5324   3.5948   3.6994   3.7146
     4.0789   4.1318   5.8612   5.8942   6.3959   6.4742   6.9371   6.9660
     7.2433   7.2621

          k = 1.0162 0.1290-0.2971 ( 36516 PWs)   bands (ev):

   -44.1477 -44.1477 -22.2771 -22.2771 -22.2560 -22.2560 -22.0639 -22.0639
    -6.6777  -6.6777  -5.8234  -5.8234  -5.7019  -5.7019  -5.4714  -5.4714
    -4.5686  -4.5686  -0.0743  -0.0743   0.9095   0.9095   1.0113   1.0113
     1.5636   1.5636   1.5851   1.5851   2.3617   2.3617   2.7669   2.7669
     2.9830   2.9830   3.1650   3.1650   3.6065   3.6065   3.7702   3.7702
     4.5614   4.5614   5.3136   5.3136   6.3625   6.3625   6.9717   6.9717
     7.3118   7.3118

          k =-0.7622-0.3224 0.0000 ( 36511 PWs)   bands (ev):

   -44.1481 -44.1481 -22.2793 -22.2792 -22.2459 -22.2459 -22.0652 -22.0652
    -6.8317  -6.7246  -6.3653  -6.2026  -5.9185  -5.3109  -5.2601  -5.0619
    -4.6311  -4.5827   0.0163   0.2279   0.6136   1.1020   1.1614   1.2186
     1.4995   1.6609   1.9512   1.9653   2.3388   2.4372   2.5079   2.7867
     2.8077   3.1774   3.2772   3.3880   3.5925   3.6557   3.7771   3.7911
     3.9243   4.4992   5.7734   6.1818   6.3103   6.6596   6.7555   6.9055
     7.1785   7.5691

          k =-0.7622-0.3224 0.1485 ( 36492 PWs)   bands (ev):

   -44.1481 -44.1481 -22.2793 -22.2792 -22.2459 -22.2459 -22.0652 -22.0652
    -6.8150  -6.7382  -6.3602  -6.2656  -5.8058  -5.4199  -5.1998  -5.0826
    -4.6186  -4.5856   0.0782   0.3483   0.5084   0.9303   1.1487   1.1879
     1.5415   1.6591   1.7219   2.1877   2.2361   2.6262   2.6951   2.8248
     2.8808   3.1619   3.1856   3.3658   3.4785   3.6241   3.6530   3.8727
     3.9180   4.7021   5.3898   6.2831   6.5376   6.6178   6.7511   6.9413
     7.0168   7.4485

          k =-0.7622-0.3224-0.2971 ( 36508 PWs)   bands (ev):

   -44.1481 -44.1481 -22.2792 -22.2792 -22.2459 -22.2459 -22.0652 -22.0652
    -6.7751  -6.7751  -6.3335  -6.3335  -5.6058  -5.6058  -5.1346  -5.1346
    -4.5976  -4.5976   0.2591   0.2591   0.6848   0.6848   1.0426   1.0426
     1.5804   1.5804   2.0448   2.0448   2.4372   2.4372   2.8068   2.8068
     3.0025   3.0025   3.2946   3.2946   3.5771   3.5771   3.8033   3.8033
     4.1460   4.1460   5.9647   5.9647   6.3741   6.3741   6.9129   6.9129
     7.2753   7.2753

          k =-0.5081-0.2579 0.0000 ( 36480 PWs)   bands (ev):

   -44.1490 -44.1490 -22.2841 -22.2841 -22.2220 -22.2220 -22.0682 -22.0681
    -7.2239  -6.8831  -6.6504  -6.6247  -6.2735  -5.2291  -5.1242  -4.7539
    -4.6865  -4.4201   0.5329   0.6793   0.7186   1.2839   1.2980   1.5572
     1.6628   1.8077   1.9785   2.1568   2.2396   2.3187   2.3493   3.3071
     3.3516   3.3632   3.4563   3.4933   3.7361   3.8701   3.8843   4.0803
     4.5899   5.2866   5.3901   5.8102   5.9988   6.6465   6.6800   6.7709
     7.3222   7.5502

          k =-0.5081-0.2579 0.1485 ( 36485 PWs)   bands (ev):

   -44.1490 -44.1490 -22.2841 -22.2841 -22.2220 -22.2220 -22.0682 -22.0681
    -7.1903  -6.9621  -6.6524  -6.6291  -6.1341  -5.5047  -4.9342  -4.7213
    -4.6884  -4.4498   0.5197   0.7391   0.8465   1.0732   1.3046   1.4266
     1.5441   1.6683   2.0439   2.0703   2.3174   2.5949   2.8384   3.3109
     3.3278   3.3719   3.4701   3.5085   3.6388   3.7209   3.8281   4.1406
     4.3428   4.5780   6.0156   6.0802   6.2146   6.6495   6.6742   6.6995
     7.1706   7.4782

          k =-0.5081-0.2579-0.2971 ( 36478 PWs)   bands (ev):

   -44.1490 -44.1490 -22.2841 -22.2841 -22.2220 -22.2220 -22.0682 -22.0682
    -7.0947  -7.0947  -6.6424  -6.6424  -5.8410  -5.8410  -4.8059  -4.8059
    -4.5478  -4.5478   0.6218   0.6218   1.0876   1.0876   1.2065   1.2065
     1.4656   1.4656   2.0563   2.0563   2.7906   2.7906   3.1691   3.1691
     3.3575   3.3575   3.4189   3.4189   3.6921   3.6921   3.8189   3.8189
     4.2427   4.2427   6.2318   6.2318   6.6108   6.6108   6.7501   6.7501
     7.0953   7.0953

          k =-0.2541-0.1934 0.0000 ( 36410 PWs)   bands (ev):

   -44.1499 -44.1499 -22.2888 -22.2888 -22.1980 -22.1980 -22.0712 -22.0711
    -7.5470  -7.0681  -6.9490  -6.7512  -6.4738  -5.2969  -5.0947  -4.8626
    -4.7896  -4.0009   0.5508   0.9047   0.9135   1.2127   1.3343   1.4644
     1.9479   2.0841   2.2207   2.4966   2.5698   3.0985   3.3850   3.5712
     3.6143   3.6952   3.7737   3.8203   3.9302   4.1608   4.2013   4.2228
     4.4028   4.6663   5.7546   6.0072   6.3260   6.5943   6.6066   6.8501
     6.9980   7.0680

          k =-0.2541-0.1934 0.1485 ( 36427 PWs)   bands (ev):

   -44.1499 -44.1499 -22.2888 -22.2888 -22.1980 -22.1980 -22.0712 -22.0711
    -7.5089  -7.2250  -6.8463  -6.7592  -6.3502  -5.6372  -4.9097  -4.8076
    -4.6988  -4.0935   0.5788   0.9243   1.0036   1.0312   1.1713   1.6040
     1.8600   2.3191   2.4661   2.5105   2.5563   2.9130   3.2722   3.3402
     3.5452   3.6482   3.7314   3.8890   3.9711   4.0796   4.1925   4.2344
     4.6782   5.0033   5.7894   5.8498   6.1876   6.3279   6.5500   6.6921
     7.2142   7.2907

          k =-0.2541-0.1934-0.2971 ( 36422 PWs)   bands (ev):

   -44.1499 -44.1499 -22.2888 -22.2888 -22.1980 -22.1980 -22.0712 -22.0712
    -7.3975  -7.3975  -6.7857  -6.7857  -6.0360  -6.0360  -4.8517  -4.8517
    -4.3488  -4.3488   0.7169   0.7169   1.0404   1.0404   1.2849   1.2849
     2.2986   2.2986   2.5464   2.5464   2.6935   2.6935   3.1344   3.1344
     3.5267   3.5267   3.8051   3.8051   4.0298   4.0298   4.2290   4.2290
     5.1650   5.1650   5.7052   5.7052   6.0815   6.0815   6.5507   6.5507
     7.4129   7.4130

          k = 0.0000-0.1290 0.0000 ( 36417 PWs)   bands (ev):

   -44.1503 -44.1503 -22.2908 -22.2908 -22.1880 -22.1880 -22.0724 -22.0724
    -7.6658  -7.1521  -7.0533  -6.7916  -6.5281  -5.3340  -5.0997  -4.9018
    -4.8347  -3.8617   0.4578   0.7391   0.7741   1.0740   1.5216   1.5863
     2.4182   2.4652   2.6474   3.0176   3.0207   3.0211   3.1566   3.4593
     3.5106   3.6257   3.7909   4.0174   4.1280   4.2415   4.2716   4.6299
     5.0848   5.5070   5.6085   5.6510   5.8660   6.0699   6.4181   6.7817
     6.9397   7.2722

          k = 0.0000-0.1290 0.1485 ( 36419 PWs)   bands (ev):

   -44.1503 -44.1503 -22.2908 -22.2908 -22.1880 -22.1880 -22.0724 -22.0724
    -7.6267  -7.3313  -6.9136  -6.8008  -6.4167  -5.6928  -4.9243  -4.8489
    -4.6994  -3.9781   0.5001   0.7771   0.9272   1.0434   1.0792   2.0182
     2.1243   2.4444   2.6035   3.0179   3.0194   3.1184   3.3056   3.3502
     3.6652   3.7187   3.7755   3.9854   4.0771   4.2664   4.2879   4.6443
     4.8986   5.0419   5.7362   5.9295   6.0387   6.0663   6.5878   6.7152
     6.7728   7.2521

          k = 0.0000-0.1290-0.2971 ( 36464 PWs)   bands (ev):

   -44.1503 -44.1503 -22.2908 -22.2908 -22.1880 -22.1880 -22.0724 -22.0724
    -7.5118  -7.5118  -6.8327  -6.8327  -6.1060  -6.1060  -4.8832  -4.8832
    -4.2874  -4.2874   0.6934   0.6934   0.8843   0.8843   1.4413   1.4413
     2.5157   2.5157   2.7016   2.7016   3.0170   3.0170   3.3507   3.3507
     3.8056   3.8056   3.9172   3.9172   4.2362   4.2362   4.4314   4.4314
     4.7137   4.7137   5.9533   5.9533   6.2574   6.2574   6.3817   6.3817
     7.1467   7.1468

          k = 1.0162 0.0000 0.0000 ( 36499 PWs)   bands (ev):

   -44.1477 -44.1477 -22.2771 -22.2771 -22.2560 -22.2560 -22.0639 -22.0639
    -6.6891  -6.6690  -5.8054  -5.7961  -5.7114  -5.6997  -5.4987  -5.4972
    -4.5678  -4.5480   0.0616   0.1084   0.4090   0.4481   1.0040   1.0317
     1.4786   1.6561   2.2369   2.3315   2.3472   2.3690   2.7920   2.8112
     2.8931   2.9030   3.2283   3.2927   3.3001   3.4687   3.5977   3.6450
     3.7787   3.9747   6.3765   6.4242   6.4598   6.5639   6.9712   7.0132
     7.0201   7.0331

          k = 1.0162 0.0000 0.1485 ( 36485 PWs)   bands (ev):

   -44.1477 -44.1477 -22.2771 -22.2771 -22.2560 -22.2560 -22.0639 -22.0639
    -6.6855  -6.6712  -5.8165  -5.8087  -5.7066  -5.7004  -5.4853  -5.4835
    -4.5702  -4.5562  -0.0216  -0.0065   0.6378   0.6462   1.0387   1.0420
     1.4733   1.5753   1.9502   1.9736   2.3596   2.3728   2.6838   2.8213
     2.9763   3.0428   3.0946   3.2165   3.5291   3.6353   3.6747   3.6936
     4.0722   4.1440   5.8560   5.9018   6.3933   6.4766   6.9455   6.9632
     7.2510   7.2546

          k = 1.0162 0.0000-0.2971 ( 36514 PWs)   bands (ev):

   -44.1477 -44.1477 -22.2771 -22.2771 -22.2560 -22.2560 -22.0639 -22.0639
    -6.6777  -6.6777  -5.8234  -5.8234  -5.7019  -5.7019  -5.4714  -5.4714
    -4.5686  -4.5686  -0.0745  -0.0745   0.9086   0.9086   1.0134   1.0134
     1.5605   1.5605   1.5889   1.5889   2.3519   2.3519   2.7555   2.7555
     3.0520   3.0520   3.1155   3.1155   3.6131   3.6131   3.7624   3.7624
     4.5617   4.5617   5.3156   5.3156   6.3622   6.3622   6.9740   6.9740
     7.3118   7.3118

          k = 1.2703 0.0645 0.0000 ( 36468 PWs)   bands (ev):

   -44.1481 -44.1480 -22.2793 -22.2792 -22.2459 -22.2459 -22.0652 -22.0652
    -6.8195  -6.7289  -6.3747  -6.2002  -5.9194  -5.3156  -5.2594  -5.0623
    -4.6341  -4.5785   0.0222   0.2171   0.5921   1.0911   1.1731   1.2047
     1.5037   1.7084   1.9399   2.0105   2.4035   2.4321   2.5267   2.8057
     2.8228   3.1069   3.2889   3.4523   3.5414   3.5529   3.7657   3.8561
     3.8909   4.4409   5.7754   6.1820   6.3428   6.6016   6.7928   6.9613
     7.1432   7.5756

          k = 1.2703 0.0645 0.1485 ( 36490 PWs)   bands (ev):

   -44.1481 -44.1481 -22.2793 -22.2792 -22.2459 -22.2459 -22.0652 -22.0652
    -6.8043  -6.7392  -6.3694  -6.2676  -5.8047  -5.4200  -5.2026  -5.0835
    -4.6206  -4.5827   0.0791   0.3442   0.4973   0.9156   1.1592   1.1719
     1.5850   1.6425   1.7113   2.2651   2.3116   2.6181   2.6998   2.8402
     2.8907   3.1125   3.2030   3.3706   3.4256   3.5779   3.7272   3.8310
     3.8509   4.7012   5.3659   6.3072   6.5071   6.6228   6.7488   6.9760
     7.0317   7.4206

          k = 1.2703 0.0645-0.2971 ( 36480 PWs)   bands (ev):

   -44.1481 -44.1481 -22.2792 -22.2792 -22.2459 -22.2459 -22.0652 -22.0652
    -6.7694  -6.7694  -6.3406  -6.3406  -5.6042  -5.6042  -5.1370  -5.1370
    -4.5973  -4.5973   0.2548   0.2548   0.6891   0.6891   1.0256   1.0256
     1.5845   1.5845   2.0745   2.0745   2.4995   2.4995   2.8264   2.8264
     3.0010   3.0010   3.2202   3.2202   3.5823   3.5823   3.7932   3.7932
     4.1268   4.1268   5.9434   5.9434   6.3711   6.3711   6.9647   6.9647
     7.2341   7.2341

          k =-0.5081-0.3869 0.0000 ( 36463 PWs)   bands (ev):

   -44.1490 -44.1490 -22.2841 -22.2841 -22.2220 -22.2220 -22.0682 -22.0681
    -7.2080  -6.8801  -6.6477  -6.6402  -6.2852  -5.2271  -5.1326  -4.7578
    -4.6798  -4.4211   0.5402   0.6650   0.7111   1.3081   1.4202   1.5969
     1.6517   1.8045   1.9578   2.1988   2.2696   2.3218   2.3526   3.2289
     3.3448   3.3792   3.3887   3.5043   3.6991   3.7812   3.8614   4.0701
     4.5786   5.2745   5.3809   5.7264   6.0590   6.6857   6.7595   6.7968
     7.2351   7.5524

          k =-0.5081-0.3869 0.1485 ( 36477 PWs)   bands (ev):

   -44.1490 -44.1490 -22.2841 -22.2841 -22.2220 -22.2220 -22.0682 -22.0681
    -7.1746  -6.9515  -6.6638  -6.6458  -6.1379  -5.5031  -4.9469  -4.7199
    -4.6854  -4.4478   0.5248   0.7428   0.8332   1.0699   1.4006   1.4348
     1.5918   1.6897   2.0517   2.0758   2.3071   2.6410   2.8579   3.1970
     3.3422   3.3715   3.4109   3.5055   3.6454   3.7006   3.7720   4.1069
     4.2792   4.5769   5.9605   6.0902   6.2099   6.5847   6.7738   6.8181
     7.0914   7.4814

          k =-0.5081-0.3869-0.2971 ( 36492 PWs)   bands (ev):

   -44.1490 -44.1490 -22.2841 -22.2841 -22.2220 -22.2220 -22.0682 -22.0682
    -7.0799  -7.0799  -6.6600  -6.6600  -5.8399  -5.8399  -4.8153  -4.8153
    -4.5419  -4.5419   0.6306   0.6306   1.0854   1.0854   1.1900   1.1900
     1.5658   1.5658   2.0480   2.0480   2.8193   2.8193   3.1960   3.1960
     3.2972   3.2972   3.3827   3.3827   3.6765   3.6765   3.8053   3.8053
     4.1831   4.1831   6.1944   6.1944   6.6408   6.6408   6.7569   6.7569
     7.1077   7.1077

          k =-0.2541-0.3224 0.0000 ( 36485 PWs)   bands (ev):

   -44.1499 -44.1499 -22.2888 -22.2888 -22.1980 -22.1980 -22.0712 -22.0711
    -7.5315  -7.0556  -6.9463  -6.7686  -6.4976  -5.2957  -5.1054  -4.8681
    -4.7807  -4.0024   0.5772   0.9274   1.0310   1.2619   1.4066   1.4618
     1.9832   2.1159   2.2224   2.4165   2.5184   3.2155   3.2607   3.3871
     3.5614   3.6655   3.7375   3.8481   3.9097   4.0812   4.1627   4.1802
     4.3959   4.6081   5.8345   6.0236   6.3684   6.5536   6.6925   6.8733
     6.9375   7.0105

          k =-0.2541-0.3224 0.1485 ( 36445 PWs)   bands (ev):

   -44.1499 -44.1499 -22.2888 -22.2888 -22.1980 -22.1980 -22.0712 -22.0711
    -7.4934  -7.2105  -6.8562  -6.7771  -6.3625  -5.6362  -4.9310  -4.8039
    -4.6901  -4.0933   0.5989   0.9621   1.0422   1.1385   1.2478   1.6289
     1.8688   2.3151   2.4309   2.4787   2.5527   2.8949   3.3024   3.3483
     3.3745   3.5226   3.7364   3.8827   3.9159   4.0683   4.1090   4.1679
     4.6875   4.9695   5.7723   5.8764   6.1785   6.3239   6.6518   6.7237
     7.1616   7.2792

          k =-0.2541-0.3224-0.2971 ( 36442 PWs)   bands (ev):

   -44.1499 -44.1499 -22.2888 -22.2888 -22.1980 -22.1980 -22.0712 -22.0712
    -7.3822  -7.3822  -6.8034  -6.8034  -6.0379  -6.0379  -4.8601  -4.8601
    -4.3446  -4.3446   0.7284   0.7284   1.1701   1.1701   1.2983   1.2983
     2.2943   2.2943   2.4937   2.4937   2.6982   2.6982   3.1870   3.1870
     3.3581   3.3581   3.7931   3.7931   4.0148   4.0148   4.1519   4.1519
     5.1664   5.1664   5.6620   5.6620   6.0551   6.0551   6.6582   6.6582
     7.3791   7.3791

          k = 0.0000-0.2579 0.0000 ( 36445 PWs)   bands (ev):

   -44.1503 -44.1503 -22.2908 -22.2908 -22.1880 -22.1880 -22.0724 -22.0724
    -7.6520  -7.1380  -7.0509  -6.8084  -6.5526  -5.3335  -5.1095  -4.9096
    -4.8241  -3.8632   0.5023   0.7878   0.8542   1.1167   1.5770   1.6109
     2.4262   2.4668   2.6652   3.0109   3.0170   3.0485   3.2572   3.2767
     3.2936   3.5994   3.7115   3.9825   4.1023   4.1279   4.1458   4.6323
     5.0649   5.4430   5.6686   5.6760   5.9012   6.1346   6.5153   6.7029
     6.9411   7.2346

          k = 0.0000-0.2579 0.1485 ( 36452 PWs)   bands (ev):

   -44.1503 -44.1503 -22.2908 -22.2908 -22.1880 -22.1880 -22.0724 -22.0724
    -7.6129  -7.3179  -6.9197  -6.8175  -6.4312  -5.6926  -4.9460  -4.8438
    -4.6914  -3.9781   0.5351   0.8832   0.9747   1.0861   1.1079   2.0401
     2.1592   2.4532   2.6188   3.0100   3.0129   3.1208   3.2043   3.2333
     3.6348   3.6696   3.6966   3.9252   4.0727   4.1439   4.1750   4.6465
     4.8900   5.0239   5.7642   5.9382   6.0685   6.0905   6.5521   6.7750
     6.7812   7.2171

          k = 0.0000-0.2579-0.2971 ( 36454 PWs)   bands (ev):

   -44.1503 -44.1503 -22.2908 -22.2908 -22.1880 -22.1880 -22.0724 -22.0724
    -7.4981  -7.4981  -6.8480  -6.8480  -6.1094  -6.1094  -4.8907  -4.8907
    -4.2840  -4.2840   0.7262   0.7262   0.9733   0.9733   1.4642   1.4642
     2.5269   2.5269   2.7205   2.7205   3.0096   3.0096   3.2085   3.2085
     3.7712   3.7712   3.9033   3.9033   4.0981   4.0981   4.4235   4.4235
     4.7135   4.7135   5.9298   5.9298   6.2983   6.2983   6.3859   6.3859
     7.1356   7.1356

          k = 1.5243 0.0000 0.0000 ( 36439 PWs)   bands (ev):

   -44.1490 -44.1490 -22.2841 -22.2841 -22.2220 -22.2220 -22.0682 -22.0681
    -7.2009  -6.8794  -6.6466  -6.6463  -6.2902  -5.2263  -5.1361  -4.7590
    -4.6774  -4.4215   0.5444   0.6593   0.7052   1.3120   1.5543   1.5586
     1.6271   1.7986   1.9661   2.2207   2.2576   2.3181   2.3688   3.1778
     3.3236   3.3566   3.4025   3.5820   3.6716   3.6879   3.8553   4.0849
     4.5734   5.2659   5.3776   5.6932   6.0863   6.6494   6.8215   6.8397
     7.1883   7.5774

          k = 1.5243 0.0000 0.1485 ( 36476 PWs)   bands (ev):

   -44.1490 -44.1490 -22.2841 -22.2841 -22.2220 -22.2220 -22.0682 -22.0681
    -7.1676  -6.9471  -6.6683  -6.6535  -6.1395  -5.5024  -4.9520  -4.7198
    -4.6840  -4.4470   0.5273   0.7431   0.8274   1.0687   1.4205   1.4830
     1.5797   1.7121   2.0627   2.0763   2.2986   2.6527   2.8700   3.1461
     3.3000   3.3850   3.3959   3.5843   3.6088   3.7027   3.7129   4.1210
     4.2371   4.5766   5.9339   6.0985   6.2088   6.5559   6.8184   6.8817
     7.0426   7.4926

          k = 1.5243 0.0000-0.2971 ( 36508 PWs)   bands (ev):

   -44.1490 -44.1490 -22.2841 -22.2841 -22.2220 -22.2220 -22.0682 -22.0682
    -7.0734  -7.0734  -6.6676  -6.6676  -5.8394  -5.8394  -4.8191  -4.8191
    -4.5396  -4.5396   0.6341   0.6341   1.0842   1.0842   1.1843   1.1843
     1.6134   1.6134   2.0410   2.0410   2.8328   2.8328   3.1578   3.1578
     3.3061   3.3061   3.3862   3.3862   3.6620   3.6620   3.8006   3.8006
     4.1587   4.1587   6.1792   6.1792   6.6355   6.6355   6.7737   6.7737
     7.1180   7.1180

          k =-0.2541-0.4514 0.0000 ( 36444 PWs)   bands (ev):

   -44.1499 -44.1499 -22.2888 -22.2888 -22.1980 -22.1980 -22.0712 -22.0711
    -7.5199  -7.0472  -6.9443  -6.7795  -6.5158  -5.2948  -5.1131  -4.8697
    -4.7764  -4.0035   0.5857   0.9380   1.1437   1.2968   1.4580   1.4955
     2.0219   2.1413   2.2142   2.3250   2.4420   3.1668   3.2589   3.3205
     3.5663   3.6361   3.7437   3.7737   3.9116   4.0380   4.1276   4.1537
     4.4472   4.5343   5.9005   6.0316   6.3886   6.5187   6.7476   6.8656
     6.8913   6.9997

          k =-0.2541-0.4514 0.1485 ( 36461 PWs)   bands (ev):

   -44.1499 -44.1499 -22.2888 -22.2888 -22.1980 -22.1980 -22.0712 -22.0711
    -7.4818  -7.1996  -6.8645  -6.7894  -6.3711  -5.6355  -4.9444  -4.8025
    -4.6844  -4.0931   0.6042   0.9779   1.0538   1.2738   1.3240   1.6504
     1.8854   2.2947   2.3390   2.4549   2.5551   2.8819   3.2440   3.2581
     3.3808   3.5312   3.7650   3.8401   3.8815   3.9929   4.1009   4.1320
     4.7104   4.9363   5.7636   5.8976   6.1875   6.2812   6.7198   6.7456
     7.1327   7.2705

          k =-0.2541-0.4514-0.2971 ( 36490 PWs)   bands (ev):

   -44.1499 -44.1499 -22.2888 -22.2888 -22.1980 -22.1980 -22.0712 -22.0712
    -7.3707  -7.3707  -6.8167  -6.8167  -6.0391  -6.0391  -4.8661  -4.8661
    -4.3417  -4.3417   0.7303   0.7303   1.2838   1.2838   1.3199   1.3199
     2.2768   2.2768   2.4350   2.4350   2.7006   2.7006   3.2085   3.2085
     3.2623   3.2623   3.7915   3.7915   3.9973   3.9973   4.1082   4.1082
     5.1693   5.1693   5.6366   5.6366   6.0304   6.0304   6.7228   6.7228
     7.3577   7.3577

          k = 0.0000-0.3869 0.0000 ( 36477 PWs)   bands (ev):

   -44.1503 -44.1503 -22.2908 -22.2908 -22.1880 -22.1880 -22.0724 -22.0724
    -7.6376  -7.1239  -7.0485  -6.8236  -6.5794  -5.3329  -5.1200  -4.9127
    -4.8175  -3.8648   0.5258   0.8021   1.0122   1.1813   1.6340   1.6426
     2.4344   2.4640   2.6844   3.0003   3.0015   3.0130   3.0416   3.0978
     3.3974   3.5725   3.7285   3.9206   3.9655   4.0102   4.1276   4.6348
     5.0455   5.4072   5.6862   5.7532   5.9389   6.1723   6.5836   6.6009
     6.9423   7.2065

          k = 0.0000-0.3869 0.1485 ( 36452 PWs)   bands (ev):

   -44.1503 -44.1503 -22.2908 -22.2908 -22.1880 -22.1880 -22.0724 -22.0724
    -7.5985  -7.3040  -6.9277  -6.8336  -6.4458  -5.6922  -4.9645  -4.8412
    -4.6841  -3.9781   0.5488   0.9926   1.0157   1.1442   1.2018   2.0652
     2.1899   2.4622   2.6350   2.9253   2.9658   3.0004   3.0073   3.2987
     3.6105   3.6712   3.6741   3.9088   4.0095   4.0584   4.0680   4.6489
     4.8815   5.0160   5.8019   5.9474   6.0875   6.0936   6.5072   6.7771
     6.8227   7.1836

          k = 0.0000-0.3869-0.2971 ( 36454 PWs)   bands (ev):

   -44.1503 -44.1503 -22.2908 -22.2908 -22.1880 -22.1880 -22.0724 -22.0724
    -7.4837  -7.4837  -6.8642  -6.8642  -6.1124  -6.1124  -4.8982  -4.8982
    -4.2807  -4.2807   0.7312   0.7312   1.1195   1.1195   1.4890   1.4890
     2.5386   2.5386   2.6950   2.6950   3.0018   3.0018   3.0363   3.0363
     3.7855   3.7855   3.8893   3.8893   3.9870   3.9870   4.4098   4.4098
     4.7134   4.7134   5.9022   5.9022   6.3246   6.3246   6.3905   6.3905
     7.1100   7.1100

          k =-2.0325 0.0000 0.0000 ( 36452 PWs)   bands (ev):

   -44.1503 -44.1503 -22.2908 -22.2908 -22.1880 -22.1880 -22.0724 -22.0724
    -7.6313  -7.1182  -7.0475  -6.8290  -6.5914  -5.3327  -5.1245  -4.9131
    -4.8155  -3.8655   0.5300   0.8082   1.1230   1.1807   1.6431   1.6839
     2.4378   2.4601   2.6928   2.8565   2.9412   2.9956   3.0113   3.1253
     3.4955   3.5611   3.7507   3.8050   3.9490   3.9552   4.1275   4.6360
     5.0376   5.3970   5.6935   5.7893   5.9568   6.1835   6.5502   6.6057
     6.9427   7.1967

          k =-2.0325 0.0000 0.1485 ( 36456 PWs)   bands (ev):

   -44.1503 -44.1503 -22.2908 -22.2908 -22.1880 -22.1880 -22.0724 -22.0724
    -7.5922  -7.2979  -6.9317  -6.8401  -6.4519  -5.6921  -4.9715  -4.8405
    -4.6813  -3.9781   0.5496   1.0263   1.0309   1.1844   1.2683   2.0761
     2.2023   2.4660   2.6420   2.8037   2.8567   2.9961   3.0050   3.3559
     3.5900   3.6647   3.7015   3.8834   3.9555   4.0134   4.0660   4.6500
     4.8780   5.0146   5.8219   5.9514   6.0774   6.1034   6.4867   6.7780
     6.8338   7.1712

          k =-2.0325 0.0000-0.2971 ( 36460 PWs)   bands (ev):

   -44.1503 -44.1503 -22.2908 -22.2908 -22.1880 -22.1880 -22.0724 -22.0724
    -7.4775  -7.4775  -6.8713  -6.8713  -6.1136  -6.1136  -4.9013  -4.9013
    -4.2793  -4.2793   0.7296   0.7296   1.1972   1.1972   1.5007   1.5007
     2.5436   2.5436   2.6421   2.6421   2.9900   2.9900   2.9985   2.9985
     3.7949   3.7949   3.8834   3.8834   3.9457   3.9457   4.4045   4.4045
     4.7135   4.7135   5.8892   5.8892   6.3326   6.3326   6.3924   6.3924
     7.0976   7.0976

     the Fermi energy is     5.3166 ev

!    total energy              =   -4240.94229677 Ry

     total all-electron energy =   -150287.635991 Ry
     estimated scf accuracy    <          8.0E-11 Ry
     smearing contrib. (-TS)   =      -0.00001571 Ry
     internal energy E=F+TS    =   -4240.94228107 Ry

     The total energy is F=E-TS. E is the sum of the following terms:
     one-electron contribution =    -165.32228671 Ry
     hartree contribution      =     116.13599544 Ry
     xc contribution           =    -201.43037251 Ry
     ewald contribution        =    -222.81492549 Ry
     one-center paw contrib.   =   -3767.51069180 Ry

     convergence has been achieved in  16 iterations

     Forces acting on atoms (cartesian axes, Ry/au):

     atom    1 type  1   force =    -0.00000000   -0.01634973    0.00000000
     atom    2 type  1   force =     0.00000000    0.01634973    0.00000000
     atom    3 type  2   force =     0.00000000    0.00054672    0.00000000
     atom    4 type  2   force =     0.00000000   -0.00054672    0.00000000
     atom    5 type  2   force =     0.00000000    0.00349412    0.00039758
     atom    6 type  2   force =     0.00000000   -0.00349412   -0.00039758
     atom    7 type  2   force =     0.00000000    0.00349412   -0.00039758
     atom    8 type  2   force =     0.00000000   -0.00349412    0.00039758
     atom    9 type  2   force =     0.00000000    0.01817885    0.01639964
     atom   10 type  2   force =     0.00000000   -0.01817885   -0.01639964
     atom   11 type  2   force =     0.00000000    0.01817885   -0.01639964
     atom   12 type  2   force =     0.00000000   -0.01817885    0.01639964

     Total force =     0.054611     Total SCF correction =     0.000017


     Computing stress (Cartesian axis) and pressure

          total   stress  (Ry/bohr**3)                   (kbar)     P=       -4.06
  -0.00001843   0.00000000   0.00000000           -2.71        0.00        0.00
   0.00000000  -0.00002735   0.00000000            0.00       -4.02        0.00
   0.00000000   0.00000000  -0.00003709            0.00        0.00       -5.46

 
     init_run     :     17.96s CPU     18.45s WALL (       1 calls)
     electrons    :    877.58s CPU    887.47s WALL (       1 calls)
     forces       :      6.57s CPU      6.79s WALL (       1 calls)
     stress       :     40.82s CPU     41.37s WALL (       1 calls)

     Called by init_run:
     wfcinit      :     13.79s CPU     13.96s WALL (       1 calls)
     potinit      :      1.35s CPU      1.40s WALL (       1 calls)
     hinit0       :      1.63s CPU      1.69s WALL (       1 calls)

     Called by electrons:
     c_bands      :    740.06s CPU    743.30s WALL (      17 calls)
     sum_band     :    115.25s CPU    118.87s WALL (      17 calls)
     v_of_rho     :      4.84s CPU      5.11s WALL (      17 calls)
     newd         :     12.29s CPU     15.20s WALL (      17 calls)
     PAW_pot      :      5.32s CPU      5.32s WALL (      17 calls)
     mix_rho      :      0.72s CPU      0.75s WALL (      17 calls)

     Called by c_bands:
     init_us_2    :     10.38s CPU     10.42s WALL (    2331 calls)
     cegterg      :    670.98s CPU    673.74s WALL (    1071 calls)

     Called by *egterg:
     cdiaghg      :     26.58s CPU     26.64s WALL (    7876 calls)
     h_psi        :    513.80s CPU    516.39s WALL (    8002 calls)
     s_psi        :     42.60s CPU     42.68s WALL (    8002 calls)
     g_psi        :      1.87s CPU      1.88s WALL (    6868 calls)

     Called by h_psi:
     h_psi:calbec :     36.82s CPU     36.91s WALL (    8002 calls)
     vloc_psi     :    431.63s CPU    433.99s WALL (    8002 calls)
     add_vuspsi   :     42.57s CPU     42.64s WALL (    8002 calls)

     General routines
     calbec       :     48.21s CPU     48.33s WALL (    9388 calls)
     fft          :      2.88s CPU      3.01s WALL (     245 calls)
     ffts         :      0.07s CPU      0.07s WALL (      34 calls)
     fftw         :    391.68s CPU    393.83s WALL (  404220 calls)
     interpolate  :      0.26s CPU      0.27s WALL (      17 calls)
 
     Parallel routines
 
     PWSCF        :  15m43.19s CPU  15m54.40s WALL

 
   This run was terminated on:  15:34:23  19Nov2021            

=------------------------------------------------------------------------------=
   JOB DONE.
=------------------------------------------------------------------------------=
