
     Program PWSCF v.6.8 starts on 19Nov2021 at 15:18:48 

     This program is part of the open-source Quantum ESPRESSO suite
     for quantum simulation of materials; please cite
         "P. Giannozzi et al., J. Phys.:Condens. Matter 21 395502 (2009);
         "P. Giannozzi et al., J. Phys.:Condens. Matter 29 465901 (2017);
         "P. Giannozzi et al., J. Chem. Phys. 152 154105 (2020);
          URL http://www.quantum-espresso.org", 
     in publications or presentations arising from this work. More details at
     http://www.quantum-espresso.org/quote

     Parallel version (MPI), running on    10 processors

     MPI processes distributed on     1 nodes
     R & G space division:  proc/nbgrp/npool/nimage =      10
     70082 MiB available memory on the printing compute node when the environment starts
 
     Waiting for input...
     Reading input from standard input

     Current dimensions of program PWSCF are:
     Max number of different atomic species (ntypx) = 10
     Max number of k-points (npk) =  40000
     Max angular momentum in pseudopotentials (lmaxx) =  4
     file Zr.pbe-spn-kjpaw_psl.1.0.0.UPF: wavefunction(s)  4S 4P renormalized
     file Te.pbe-n-kjpaw_psl.1.0.0.UPF: wavefunction(s)  5S 5P renormalized
     Message from routine setup:
     using ibrav=0 with symmetry is DISCOURAGED, use correct ibrav instead

     Subspace diagonalization in iterative solution of the eigenvalue problem:
     a serial algorithm will be used

 
     Parallelization info
     --------------------
     sticks:   dense  smooth     PW     G-vecs:    dense   smooth      PW
     Min         734     293     87               115340    29174    4753
     Max         735     295     88               115345    29176    4760
     Sum        7345    2937    873              1153415   291749   47557
 
     Using Slab Decomposition
 


     bravais-lattice index     =            0
     lattice parameter (alat)  =      15.5510  a.u.
     unit-cell volume          =    3018.5011 (a.u.)^3
     number of atoms/cell      =           12
     number of atomic types    =            2
     number of electrons       =        84.00
     number of Kohn-Sham states=           50
     kinetic-energy cutoff     =      80.0000  Ry
     charge density cutoff     =     800.0000  Ry
     scf convergence threshold =      1.0E-10
     mixing beta               =       0.7000
     number of iterations used =            8  plain     mixing
     Exchange-correlation= SLA  PW   PBX  PBC
                           (   1   4   3   4   0   0   0)

     celldm(1)=  15.551040  celldm(2)=   0.000000  celldm(3)=   0.000000
     celldm(4)=   0.000000  celldm(5)=   0.000000  celldm(6)=   0.000000

     crystal axes: (cart. coord. in units of alat)
               a(1) = (   0.246007  -0.969268   0.000000 )  
               a(2) = (   0.246007   0.969268   0.000000 )  
               a(3) = (   0.000000   0.000000   1.683031 )  

     reciprocal axes: (cart. coord. in units 2 pi/alat)
               b(1) = (  2.032465 -0.515853  0.000000 )  
               b(2) = (  2.032465  0.515853  0.000000 )  
               b(3) = (  0.000000  0.000000  0.594166 )  


     PseudoPot. # 1 for Zr read from file:
     pseudo/Zr.pbe-spn-kjpaw_psl.1.0.0.UPF
     MD5 check sum: 02112c41713a0468aff2bb39ef194e36
     Pseudo is Projector augmented-wave + core cor, Zval = 12.0
     Generated using &quot;atomic&quot; code by A. Dal Corso  v.6.2.2
     Shape of augmentation charge: PSQ
     Using radial grid of 1225 points,  6 beta functions with: 
                l(1) =   0
                l(2) =   0
                l(3) =   1
                l(4) =   1
                l(5) =   2
                l(6) =   2
     Q(r) pseudized with 0 coefficients 


     PseudoPot. # 2 for Te read from file:
     pseudo/Te.pbe-n-kjpaw_psl.1.0.0.UPF
     MD5 check sum: 66247bff2bd9dbf220fbb0bf5ab56e9d
     Pseudo is Projector augmented-wave + core cor, Zval =  6.0
     Generated using &quot;atomic&quot; code by A. Dal Corso  v.6.3
     Shape of augmentation charge: PSQ
     Using radial grid of 1245 points,  6 beta functions with: 
                l(1) =   0
                l(2) =   0
                l(3) =   1
                l(4) =   1
                l(5) =   2
                l(6) =   2
     Q(r) pseudized with 0 coefficients 


     atomic species   valence    mass     pseudopotential
        Zr            12.00    91.22000     Zr( 1.00)
        Te             6.00   127.60000     Te( 1.00)

      8 Sym. Ops., with inversion, found ( 4 have fractional translation)



   Cartesian axes

     site n.     atom                  positions (alat units)
         1           Zr  tau(   1) = (   0.0000000   0.6110973   0.4207578  )
         2           Zr  tau(   2) = (   0.2460067   0.3581708   1.2622733  )
         3           Te  tau(   3) = (   0.2460067   0.3343587   0.4207578  )
         4           Te  tau(   4) = (   0.0000000   0.6349094   1.2622733  )
         5           Te  tau(   5) = (   0.2460067   0.8073268   0.2503576  )
         6           Te  tau(   6) = (   0.0000000   0.1619413   1.4326735  )
         7           Te  tau(   7) = (   0.2460067   0.8073268   0.5911580  )
         8           Te  tau(   8) = (   0.0000000   0.1619413   1.0918731  )
         9           Te  tau(   9) = (   0.0000000   0.4052745   0.7217068  )
        10           Te  tau(  10) = (   0.2460067   0.5639936   0.9613243  )
        11           Te  tau(  11) = (   0.0000000   0.4052745   0.1198088  )
        12           Te  tau(  12) = (   0.2460067   0.5639936   1.5632223  )

     number of k points=    63  Methfessel-Paxton smearing, width (Ry)=  0.0030
                       cart. coord. in units 2pi/alat
        k(    1) = (   0.0000000   0.0000000   0.0000000), wk =   0.0078125
        k(    2) = (   0.0000000   0.0000000   0.1485415), wk =   0.0156250
        k(    3) = (   0.0000000   0.0000000  -0.2970830), wk =   0.0078125
        k(    4) = (   0.2540581   0.0644816   0.0000000), wk =   0.0312500
        k(    5) = (   0.2540581   0.0644816   0.1485415), wk =   0.0625000
        k(    6) = (   0.2540581   0.0644816  -0.2970830), wk =   0.0312500
        k(    7) = (   0.5081162   0.1289633   0.0000000), wk =   0.0312500
        k(    8) = (   0.5081162   0.1289633   0.1485415), wk =   0.0625000
        k(    9) = (   0.5081162   0.1289633  -0.2970830), wk =   0.0312500
        k(   10) = (   0.7621743   0.1934449   0.0000000), wk =   0.0312500
        k(   11) = (   0.7621743   0.1934449   0.1485415), wk =   0.0625000
        k(   12) = (   0.7621743   0.1934449  -0.2970830), wk =   0.0312500
        k(   13) = (  -1.0162324  -0.2579266   0.0000000), wk =   0.0156250
        k(   14) = (  -1.0162324  -0.2579266   0.1485415), wk =   0.0312500
        k(   15) = (  -1.0162324  -0.2579266  -0.2970830), wk =   0.0156250
        k(   16) = (   0.5081162   0.0000000   0.0000000), wk =   0.0156250
        k(   17) = (   0.5081162   0.0000000   0.1485415), wk =   0.0312500
        k(   18) = (   0.5081162   0.0000000  -0.2970830), wk =   0.0156250
        k(   19) = (   0.7621743   0.0644816   0.0000000), wk =   0.0312500
        k(   20) = (   0.7621743   0.0644816   0.1485415), wk =   0.0625000
        k(   21) = (   0.7621743   0.0644816  -0.2970830), wk =   0.0312500
        k(   22) = (   1.0162324   0.1289633   0.0000000), wk =   0.0312500
        k(   23) = (   1.0162324   0.1289633   0.1485415), wk =   0.0625000
        k(   24) = (   1.0162324   0.1289633  -0.2970830), wk =   0.0312500
        k(   25) = (  -0.7621743  -0.3224082   0.0000000), wk =   0.0312500
        k(   26) = (  -0.7621743  -0.3224082   0.1485415), wk =   0.0625000
        k(   27) = (  -0.7621743  -0.3224082  -0.2970830), wk =   0.0312500
        k(   28) = (  -0.5081162  -0.2579266   0.0000000), wk =   0.0312500
        k(   29) = (  -0.5081162  -0.2579266   0.1485415), wk =   0.0625000
        k(   30) = (  -0.5081162  -0.2579266  -0.2970830), wk =   0.0312500
        k(   31) = (  -0.2540581  -0.1934449   0.0000000), wk =   0.0312500
        k(   32) = (  -0.2540581  -0.1934449   0.1485415), wk =   0.0625000
        k(   33) = (  -0.2540581  -0.1934449  -0.2970830), wk =   0.0312500
        k(   34) = (   0.0000000  -0.1289633   0.0000000), wk =   0.0156250
        k(   35) = (   0.0000000  -0.1289633   0.1485415), wk =   0.0312500
        k(   36) = (   0.0000000  -0.1289633  -0.2970830), wk =   0.0156250
        k(   37) = (   1.0162324   0.0000000   0.0000000), wk =   0.0156250
        k(   38) = (   1.0162324   0.0000000   0.1485415), wk =   0.0312500
        k(   39) = (   1.0162324   0.0000000  -0.2970830), wk =   0.0156250
        k(   40) = (   1.2702905   0.0644816   0.0000000), wk =   0.0312500
        k(   41) = (   1.2702905   0.0644816   0.1485415), wk =   0.0625000
        k(   42) = (   1.2702905   0.0644816  -0.2970830), wk =   0.0312500
        k(   43) = (  -0.5081162  -0.3868899   0.0000000), wk =   0.0312500
        k(   44) = (  -0.5081162  -0.3868899   0.1485415), wk =   0.0625000
        k(   45) = (  -0.5081162  -0.3868899  -0.2970830), wk =   0.0312500
        k(   46) = (  -0.2540581  -0.3224082   0.0000000), wk =   0.0312500
        k(   47) = (  -0.2540581  -0.3224082   0.1485415), wk =   0.0625000
        k(   48) = (  -0.2540581  -0.3224082  -0.2970830), wk =   0.0312500
        k(   49) = (   0.0000000  -0.2579266   0.0000000), wk =   0.0156250
        k(   50) = (   0.0000000  -0.2579266   0.1485415), wk =   0.0312500
        k(   51) = (   0.0000000  -0.2579266  -0.2970830), wk =   0.0156250
        k(   52) = (   1.5243485   0.0000000   0.0000000), wk =   0.0156250
        k(   53) = (   1.5243485   0.0000000   0.1485415), wk =   0.0312500
        k(   54) = (   1.5243485   0.0000000  -0.2970830), wk =   0.0156250
        k(   55) = (  -0.2540581  -0.4513715   0.0000000), wk =   0.0312500
        k(   56) = (  -0.2540581  -0.4513715   0.1485415), wk =   0.0625000
        k(   57) = (  -0.2540581  -0.4513715  -0.2970830), wk =   0.0312500
        k(   58) = (   0.0000000  -0.3868899   0.0000000), wk =   0.0156250
        k(   59) = (   0.0000000  -0.3868899   0.1485415), wk =   0.0312500
        k(   60) = (   0.0000000  -0.3868899  -0.2970830), wk =   0.0156250
        k(   61) = (  -2.0324647   0.0000000   0.0000000), wk =   0.0078125
        k(   62) = (  -2.0324647   0.0000000   0.1485415), wk =   0.0156250
        k(   63) = (  -2.0324647   0.0000000  -0.2970830), wk =   0.0078125

     Dense  grid:  1153415 G-vectors     FFT dimensions: ( 144, 144, 240)

     Smooth grid:   291749 G-vectors     FFT dimensions: (  90,  90, 150)

     Estimated max dynamical RAM per process >     657.19 MB

     Estimated total dynamical RAM >       6.42 GB

     Initial potential from superposition of free atoms

     starting charge   83.99353, renormalised to   84.00000
     Starting wfcs are   66 randomized atomic wfcs
     Checking if some PAW data can be deallocated... 

     total cpu time spent up to now is       19.5 secs

     Self-consistent Calculation

     iteration #  1     ecut=    80.00 Ry     beta= 0.70
     Davidson diagonalization with overlap
     ethr =  1.00E-02,  avg # of iterations =  2.0

     Threshold (ethr) on eigenvalues was too large:
     Diagonalizing with lowered threshold

     Davidson diagonalization with overlap
     ethr =  3.79E-04,  avg # of iterations =  4.1

     total cpu time spent up to now is      103.8 secs

     total energy              =   -4240.71725470 Ry
     estimated scf accuracy    <       0.42724494 Ry

     iteration #  2     ecut=    80.00 Ry     beta= 0.70
     Davidson diagonalization with overlap
     ethr =  5.09E-04,  avg # of iterations =  7.3

     total cpu time spent up to now is      163.4 secs

     total energy              =   -4240.62361378 Ry
     estimated scf accuracy    <       2.17305225 Ry

     iteration #  3     ecut=    80.00 Ry     beta= 0.70
     Davidson diagonalization with overlap
     ethr =  5.09E-04,  avg # of iterations =  5.0

     total cpu time spent up to now is      214.5 secs

     total energy              =   -4240.91470176 Ry
     estimated scf accuracy    <       0.02198954 Ry

     iteration #  4     ecut=    80.00 Ry     beta= 0.70
     Davidson diagonalization with overlap
     c_bands:  2 eigenvalues not converged
     c_bands:  1 eigenvalues not converged
     c_bands:  1 eigenvalues not converged
     c_bands:  1 eigenvalues not converged
     c_bands:  1 eigenvalues not converged
     c_bands:  1 eigenvalues not converged
     c_bands:  1 eigenvalues not converged
     c_bands:  1 eigenvalues not converged
     c_bands:  2 eigenvalues not converged
     ethr =  2.62E-05,  avg # of iterations = 15.7

     total cpu time spent up to now is      304.4 secs

     total energy              =   -4240.93423022 Ry
     estimated scf accuracy    <       0.11024263 Ry

     iteration #  5     ecut=    80.00 Ry     beta= 0.70
     Davidson diagonalization with overlap
     ethr =  2.62E-05,  avg # of iterations =  4.9

     total cpu time spent up to now is      349.6 secs

     total energy              =   -4240.93675102 Ry
     estimated scf accuracy    <       0.02589244 Ry

     iteration #  6     ecut=    80.00 Ry     beta= 0.70
     Davidson diagonalization with overlap
     ethr =  2.62E-05,  avg # of iterations =  2.5

     total cpu time spent up to now is      388.3 secs

     total energy              =   -4240.93752425 Ry
     estimated scf accuracy    <       0.00428832 Ry

     iteration #  7     ecut=    80.00 Ry     beta= 0.70
     Davidson diagonalization with overlap
     c_bands:  1 eigenvalues not converged
     c_bands:  1 eigenvalues not converged
     c_bands:  1 eigenvalues not converged
     c_bands:  1 eigenvalues not converged
     c_bands:  1 eigenvalues not converged
     ethr =  5.11E-06,  avg # of iterations = 12.1

     total cpu time spent up to now is      454.0 secs

     total energy              =   -4240.93961867 Ry
     estimated scf accuracy    <       0.00277478 Ry

     iteration #  8     ecut=    80.00 Ry     beta= 0.70
     Davidson diagonalization with overlap
     c_bands:  1 eigenvalues not converged
     c_bands:  1 eigenvalues not converged
     c_bands:  1 eigenvalues not converged
     ethr =  3.30E-06,  avg # of iterations =  3.1

     total cpu time spent up to now is      492.3 secs

     total energy              =   -4240.93962951 Ry
     estimated scf accuracy    <       0.00064414 Ry

     iteration #  9     ecut=    80.00 Ry     beta= 0.70
     Davidson diagonalization with overlap
     ethr =  7.67E-07,  avg # of iterations =  6.0

     total cpu time spent up to now is      537.9 secs

     total energy              =   -4240.93975889 Ry
     estimated scf accuracy    <       0.00001014 Ry

     iteration # 10     ecut=    80.00 Ry     beta= 0.70
     Davidson diagonalization with overlap
     c_bands:  1 eigenvalues not converged
     ethr =  1.21E-08,  avg # of iterations = 10.7

     total cpu time spent up to now is      609.7 secs

     total energy              =   -4240.93978420 Ry
     estimated scf accuracy    <       0.00001730 Ry

     iteration # 11     ecut=    80.00 Ry     beta= 0.70
     Davidson diagonalization with overlap
     ethr =  1.21E-08,  avg # of iterations =  3.4

     total cpu time spent up to now is      651.6 secs

     total energy              =   -4240.93978689 Ry
     estimated scf accuracy    <       0.00000006 Ry

     iteration # 12     ecut=    80.00 Ry     beta= 0.70
     Davidson diagonalization with overlap
     ethr =  7.05E-11,  avg # of iterations = 11.9

     total cpu time spent up to now is      738.3 secs

     total energy              =   -4240.93978703 Ry
     estimated scf accuracy    <       0.00000136 Ry

     iteration # 13     ecut=    80.00 Ry     beta= 0.70
     Davidson diagonalization with overlap
     c_bands:  1 eigenvalues not converged
     ethr =  7.05E-11,  avg # of iterations =  7.0

     total cpu time spent up to now is      799.1 secs

     total energy              =   -4240.93978717 Ry
     estimated scf accuracy    <       0.00000001 Ry

     iteration # 14     ecut=    80.00 Ry     beta= 0.70
     Davidson diagonalization with overlap
     ethr =  1.51E-11,  avg # of iterations =  5.1

     total cpu time spent up to now is      844.6 secs

     total energy              =   -4240.93978717 Ry
     estimated scf accuracy    <          3.6E-10 Ry

     iteration # 15     ecut=    80.00 Ry     beta= 0.70
     Davidson diagonalization with overlap
     ethr =  4.34E-13,  avg # of iterations =  7.2

     total cpu time spent up to now is      902.0 secs

     total energy              =   -4240.93978717 Ry
     estimated scf accuracy    <          2.0E-10 Ry

     iteration # 16     ecut=    80.00 Ry     beta= 0.70
     Davidson diagonalization with overlap
     ethr =  2.37E-13,  avg # of iterations =  3.1

     total cpu time spent up to now is      941.2 secs

     End of self-consistent calculation

          k = 0.0000 0.0000 0.0000 ( 36359 PWs)   bands (ev):

   -44.1529 -44.1529 -22.2947 -22.2947 -22.1913 -22.1913 -22.0744 -22.0743
    -7.6590  -7.1647  -7.0050  -6.7781  -6.5464  -5.3249  -5.1101  -4.9027
    -4.8472  -3.8634   0.4436   0.6870   0.7732   1.0610   1.4921   1.5888
     2.4166   2.4819   2.6254   3.0047   3.0350   3.0687   3.1048   3.5019
     3.5642   3.6151   3.8626   4.0435   4.1135   4.2886   4.3198   4.6261
     5.1257   5.5546   5.5730   5.6243   5.8521   6.0367   6.3867   6.8003
     6.9368   7.2953

          k = 0.0000 0.0000 0.1485 ( 36415 PWs)   bands (ev):

   -44.1529 -44.1529 -22.2947 -22.2947 -22.1913 -22.1913 -22.0744 -22.0743
    -7.6198  -7.3259  -6.8866  -6.7864  -6.4313  -5.6944  -4.9220  -4.8588
    -4.7057  -3.9802   0.4862   0.7249   0.9113   1.0539   1.0540   2.0223
     2.1146   2.4415   2.5876   3.0354   3.0548   3.0906   3.3350   3.3659
     3.6698   3.7120   3.8441   4.0351   4.0656   4.3084   4.3323   4.6421
     4.9184   5.0582   5.7181   5.9204   6.0322   6.0574   6.5937   6.6917
     6.7711   7.2724

          k = 0.0000 0.0000-0.2971 ( 36410 PWs)   bands (ev):

   -44.1529 -44.1529 -22.2947 -22.2947 -22.1913 -22.1913 -22.0743 -22.0743
    -7.5050  -7.5050  -6.8145  -6.8145  -6.1130  -6.1130  -4.8872  -4.8872
    -4.2907  -4.2907   0.6706   0.6706   0.8575   0.8575   1.4429   1.4429
     2.5083   2.5083   2.6958   2.6958   3.0398   3.0398   3.3696   3.3696
     3.8314   3.8314   3.9112   3.9112   4.3190   4.3190   4.4208   4.4208
     4.7182   4.7182   5.9624   5.9624   6.2385   6.2385   6.3795   6.3795
     7.1558   7.1558

          k = 0.2541 0.0645 0.0000 ( 36396 PWs)   bands (ev):

   -44.1525 -44.1525 -22.2928 -22.2928 -22.2013 -22.2013 -22.0731 -22.0730
    -7.5453  -7.0821  -6.9025  -6.7321  -6.4869  -5.2901  -5.0991  -4.8618
    -4.8055  -4.0012   0.5309   0.8221   0.9098   1.1793   1.2893   1.4802
     1.9314   2.0948   2.2192   2.5270   2.5904   3.0162   3.4804   3.6602
     3.6775   3.7036   3.7497   3.8021   4.0232   4.1549   4.2166   4.2629
     4.4632   4.7055   5.6915   5.9931   6.2860   6.5429   6.6203   6.8353
     7.0025   7.1434

          k = 0.2541 0.0645 0.1485 ( 36423 PWs)   bands (ev):

   -44.1525 -44.1525 -22.2928 -22.2928 -22.2013 -22.2013 -22.0731 -22.0731
    -7.5072  -7.2248  -6.8163  -6.7393  -6.3611  -5.6392  -4.9000  -4.8192
    -4.7074  -4.0949   0.5611   0.8626   0.9792   0.9950   1.1409   1.5994
     1.8640   2.3153   2.4695   2.5427   2.5634   2.9195   3.2596   3.3012
     3.6529   3.6696   3.8340   3.8895   3.9999   4.0915   4.2282   4.2842
     4.6942   5.0366   5.8058   5.8202   6.2167   6.2742   6.4770   6.6754
     7.2616   7.2923

          k = 0.2541 0.0645-0.2971 ( 36436 PWs)   bands (ev):

   -44.1525 -44.1525 -22.2928 -22.2928 -22.2013 -22.2013 -22.0731 -22.0731
    -7.3958  -7.3958  -6.7623  -6.7623  -6.0421  -6.0421  -4.8532  -4.8532
    -4.3527  -4.3527   0.7019   0.7019   0.9660   0.9660   1.2875   1.2875
     2.2942   2.2942   2.5907   2.5907   2.6936   2.6936   3.0960   3.0960
     3.5907   3.5907   3.8608   3.8608   4.0315   4.0315   4.2803   4.2803
     5.1805   5.1805   5.7423   5.7423   6.0811   6.0811   6.4668   6.4668
     7.4383   7.4384

          k = 0.5081 0.1290 0.0000 ( 36499 PWs)   bands (ev):

   -44.1516 -44.1516 -22.2881 -22.2881 -22.2254 -22.2254 -22.0701 -22.0700
    -7.2276  -6.8879  -6.6081  -6.6024  -6.2924  -5.2292  -5.1189  -4.7543
    -4.7027  -4.4177   0.5184   0.7210   0.7248   1.1850   1.2978   1.5026
     1.6633   1.8257   1.9881   2.1410   2.1702   2.2922   2.4024   3.2441
     3.3562   3.4203   3.4635   3.5697   3.7663   3.8542   3.9573   4.1540
     4.6229   5.3132   5.3841   5.8749   5.9319   6.5415   6.5542   6.8451
     7.3842   7.5647

          k = 0.5081 0.1290 0.1485 ( 36476 PWs)   bands (ev):

   -44.1516 -44.1516 -22.2881 -22.2881 -22.2254 -22.2254 -22.0701 -22.0700
    -7.1939  -6.9659  -6.6182  -6.6056  -6.1463  -5.5078  -4.9244  -4.7311
    -4.6946  -4.4505   0.5143   0.7387   0.8759   1.0822   1.2230   1.4298
     1.4749   1.6678   2.0366   2.0715   2.3243   2.5450   2.8309   3.2740
     3.3497   3.4060   3.4756   3.5767   3.6406   3.7748   3.8468   4.2143
     4.3969   4.5868   6.0237   6.0913   6.2194   6.5489   6.5960   6.7214
     7.2281   7.4825

          k = 0.5081 0.1290-0.2971 ( 36466 PWs)   bands (ev):

   -44.1516 -44.1516 -22.2881 -22.2881 -22.2254 -22.2254 -22.0701 -22.0701
    -7.0982  -7.0982  -6.6150  -6.6150  -5.8477  -5.8477  -4.8028  -4.8028
    -4.5539  -4.5539   0.6161   0.6161   1.0936   1.0936   1.2458   1.2458
     1.3658   1.3658   2.0591   2.0591   2.7733   2.7733   3.1109   3.1109
     3.3386   3.3386   3.5477   3.5477   3.7032   3.7032   3.8346   3.8346
     4.3015   4.3015   6.2562   6.2562   6.5343   6.5343   6.7738   6.7738
     7.0895   7.0895

          k = 0.7622 0.1934 0.0000 ( 36521 PWs)   bands (ev):

   -44.1507 -44.1507 -22.2832 -22.2832 -22.2494 -22.2494 -22.0671 -22.0670
    -6.8399  -6.7186  -6.3424  -6.1675  -5.9429  -5.2929  -5.2708  -5.0581
    -4.6327  -4.5976   0.0063   0.2631   0.6527   1.1424   1.1539   1.2341
     1.4765   1.5918   1.9113   1.9579   2.2697   2.4212   2.4981   2.7467
     2.7752   3.2543   3.2943   3.3572   3.6396   3.6663   3.7786   3.8210
     3.9752   4.5666   5.7615   6.1745   6.2531   6.6891   6.7294   6.8246
     7.2063   7.5620

          k = 0.7622 0.1934 0.1485 ( 36503 PWs)   bands (ev):

   -44.1507 -44.1507 -22.2832 -22.2832 -22.2494 -22.2494 -22.0671 -22.0670
    -6.8220  -6.7353  -6.3368  -6.2393  -5.8187  -5.4191  -5.1955  -5.0784
    -4.6220  -4.5983   0.0780   0.3720   0.5326   0.9581   1.1548   1.2057
     1.4922   1.6658   1.7297   2.0849   2.1334   2.6419   2.6804   2.7933
     2.8637   3.1482   3.2725   3.3755   3.4772   3.6363   3.6770   3.8941
     3.9996   4.7251   5.3989   6.2449   6.5492   6.5946   6.7491   6.9038
     6.9816   7.4677

          k = 0.7622 0.1934-0.2971 ( 36522 PWs)   bands (ev):

   -44.1507 -44.1507 -22.2832 -22.2832 -22.2494 -22.2494 -22.0670 -22.0670
    -6.7782  -6.7782  -6.3093  -6.3093  -5.6112  -5.6112  -5.1296  -5.1296
    -4.6054  -4.6054   0.2721   0.2721   0.6913   0.6913   1.0703   1.0703
     1.5749   1.5749   1.9816   1.9816   2.3707   2.3707   2.7959   2.7959
     2.9932   2.9932   3.3958   3.3958   3.5705   3.5705   3.7950   3.7950
     4.1881   4.1881   5.9828   5.9828   6.3700   6.3700   6.8374   6.8374
     7.3074   7.3074

          k =-1.0162-0.2579 0.0000 ( 36506 PWs)   bands (ev):

   -44.1503 -44.1503 -22.2810 -22.2810 -22.2595 -22.2595 -22.0658 -22.0658
    -6.6862  -6.6662  -5.7890  -5.7780  -5.6844  -5.6722  -5.5262  -5.5259
    -4.5751  -4.5561   0.0797   0.1060   0.4283   0.4474   1.0125   1.0208
     1.4684   1.6749   2.2268   2.3493   2.3506   2.3520   2.7915   2.8263
     2.8277   2.9303   3.2582   3.2727   3.2894   3.4933   3.6061   3.6203
     3.8309   3.9369   6.3693   6.3989   6.4573   6.5421   6.9334   7.0015
     7.0134   7.0161

          k =-1.0162-0.2579 0.1485 ( 36506 PWs)   bands (ev):

   -44.1503 -44.1503 -22.2810 -22.2810 -22.2595 -22.2595 -22.0658 -22.0658
    -6.6827  -6.6684  -5.7965  -5.7874  -5.6890  -5.6831  -5.5065  -5.5052
    -4.5779  -4.5645  -0.0087  -0.0000   0.6465   0.6514   1.0302   1.0565
     1.4640   1.5790   1.9241   1.9943   2.3674   2.3783   2.7499   2.7542
     2.9505   2.9725   3.1739   3.2205   3.5477   3.5512   3.7099   3.7336
     4.1033   4.1140   5.8590   5.8674   6.3884   6.4609   6.9069   6.9450
     7.2287   7.2531

          k =-1.0162-0.2579-0.2971 ( 36528 PWs)   bands (ev):

   -44.1503 -44.1503 -22.2810 -22.2810 -22.2595 -22.2595 -22.0658 -22.0658
    -6.6749  -6.6749  -5.8003  -5.8003  -5.6914  -5.6914  -5.4880  -5.4880
    -4.5769  -4.5769  -0.0643  -0.0643   0.9053   0.9053   1.0333   1.0333
     1.5453   1.5453   1.5866   1.5866   2.3690   2.3690   2.7860   2.7860
     2.9298   2.9298   3.1998   3.1998   3.5940   3.5940   3.7741   3.7741
     4.5866   4.5866   5.2832   5.2832   6.3540   6.3540   6.9456   6.9456
     7.2982   7.2982

          k = 0.5081 0.0000 0.0000 ( 36503 PWs)   bands (ev):

   -44.1516 -44.1516 -22.2881 -22.2881 -22.2254 -22.2254 -22.0701 -22.0700
    -7.2336  -6.8902  -6.6092  -6.5952  -6.2877  -5.2301  -5.1154  -4.7502
    -4.7079  -4.4173   0.5175   0.7213   0.7277   1.1527   1.2928   1.4819
     1.6679   1.8317   2.0004   2.1290   2.1321   2.2841   2.4105   3.2263
     3.3667   3.4057   3.5187   3.5924   3.7731   3.8402   3.9975   4.1913
     4.6252   5.3142   5.3900   5.9102   5.9110   6.5022   6.5025   6.8804
     7.4114   7.5723

          k = 0.5081 0.0000 0.1485 ( 36453 PWs)   bands (ev):

   -44.1516 -44.1516 -22.2881 -22.2881 -22.2254 -22.2254 -22.0701 -22.0700
    -7.1999  -6.9703  -6.6132  -6.5992  -6.1449  -5.5086  -4.9183  -4.7329
    -4.6953  -4.4513   0.5126   0.7335   0.8815   1.0840   1.1949   1.4347
     1.4461   1.6632   2.0315   2.0754   2.3266   2.5170   2.8234   3.2605
     3.3457   3.4358   3.4901   3.5954   3.6354   3.8258   3.8441   4.2494
     4.4122   4.5875   6.0239   6.1088   6.2242   6.4979   6.5606   6.7520
     7.2536   7.4870

          k = 0.5081 0.0000-0.2971 ( 36452 PWs)   bands (ev):

   -44.1516 -44.1516 -22.2881 -22.2881 -22.2254 -22.2254 -22.0701 -22.0701
    -7.1038  -7.1038  -6.6081  -6.6081  -5.8483  -5.8483  -4.7986  -4.7986
    -4.5567  -4.5567   0.6117   0.6117   1.0939   1.0939   1.2738   1.2738
     1.3136   1.3136   2.0590   2.0590   2.7642   2.7642   3.0887   3.0887
     3.3324   3.3324   3.6005   3.6005   3.7124   3.7124   3.8378   3.8378
     4.3258   4.3258   6.2717   6.2717   6.4997   6.4997   6.7886   6.7886
     7.0913   7.0913

          k = 0.7622 0.0645 0.0000 ( 36505 PWs)   bands (ev):

   -44.1507 -44.1507 -22.2832 -22.2832 -22.2494 -22.2494 -22.0671 -22.0670
    -6.8492  -6.7169  -6.3330  -6.1700  -5.9421  -5.2881  -5.2716  -5.0578
    -4.6261  -4.6054   0.0004   0.2746   0.6773   1.1421   1.1763   1.2483
     1.4338   1.5480   1.8885   1.9709   2.2283   2.3945   2.4815   2.7195
     2.7584   3.3110   3.3261   3.3638   3.6049   3.6593   3.8303   3.8451
     3.9935   4.6094   5.7599   6.1901   6.2162   6.6567   6.7811   6.7868
     7.2294   7.5659

          k = 0.7622 0.0645 0.1485 ( 36509 PWs)   bands (ev):

   -44.1507 -44.1507 -22.2832 -22.2832 -22.2494 -22.2494 -22.0671 -22.0670
    -6.8304  -6.7360  -6.3278  -6.2375  -5.8201  -5.4193  -5.1922  -5.0775
    -4.6175  -4.6038   0.0757   0.3788   0.5421   0.9803   1.1540   1.2185
     1.4544   1.6623   1.7561   2.0133   2.0605   2.6546   2.6716   2.7626
     2.8520   3.1488   3.3393   3.3952   3.4397   3.6542   3.7033   3.9115
     4.0461   4.7242   5.4258   6.2286   6.5533   6.5836   6.7662   6.9010
     6.9618   7.4863

          k = 0.7622 0.0645-0.2971 ( 36472 PWs)   bands (ev):

   -44.1507 -44.1507 -22.2832 -22.2832 -22.2494 -22.2494 -22.0670 -22.0670
    -6.7835  -6.7835  -6.3025  -6.3025  -5.6130  -5.6130  -5.1271  -5.1271
    -4.6058  -4.6058   0.2756   0.2756   0.6872   0.6872   1.0960   1.0960
     1.5693   1.5693   1.9316   1.9316   2.3351   2.3351   2.7898   2.7898
     2.9888   2.9888   3.4627   3.4627   3.5668   3.5668   3.7867   3.7867
     4.2125   4.2125   6.0069   6.0069   6.3715   6.3715   6.8030   6.8030
     7.3337   7.3337

          k = 1.0162 0.1290 0.0000 ( 36514 PWs)   bands (ev):

   -44.1503 -44.1503 -22.2810 -22.2810 -22.2595 -22.2595 -22.0658 -22.0658
    -6.6862  -6.6662  -5.7885  -5.7786  -5.6845  -5.6722  -5.5267  -5.5253
    -4.5751  -4.5561   0.0739   0.1120   0.4225   0.4533   1.0074   1.0276
     1.4735   1.6663   2.2303   2.3354   2.3428   2.3580   2.7930   2.8219
     2.8588   2.9261   3.2318   3.2849   3.3030   3.4897   3.5902   3.6346
     3.8151   3.9481   6.3654   6.4039   6.4525   6.5475   6.9442   7.0042
     7.0080   7.0183

          k = 1.0162 0.1290 0.1485 ( 36524 PWs)   bands (ev):

   -44.1503 -44.1503 -22.2810 -22.2810 -22.2595 -22.2595 -22.0658 -22.0658
    -6.6827  -6.6684  -5.7961  -5.7877  -5.6890  -5.6831  -5.5069  -5.5048
    -4.5779  -4.5645  -0.0108   0.0017   0.6455   0.6530   1.0344   1.0533
     1.4683   1.5762   1.9301   1.9836   2.3604   2.3743   2.7042   2.8089
     2.9635   2.9907   3.1482   3.2221   3.5310   3.5911   3.7003   3.7110
     4.0908   4.1325   5.8480   5.8807   6.3857   6.4635   6.9138   6.9438
     7.2323   7.2497

          k = 1.0162 0.1290-0.2971 ( 36516 PWs)   bands (ev):

   -44.1503 -44.1503 -22.2810 -22.2810 -22.2595 -22.2595 -22.0658 -22.0658
    -6.6749  -6.6749  -5.8003  -5.8003  -5.6914  -5.6914  -5.4880  -5.4880
    -4.5769  -4.5769  -0.0644  -0.0644   0.9045   0.9045   1.0355   1.0355
     1.5431   1.5431   1.5893   1.5893   2.3587   2.3587   2.7692   2.7692
     2.9805   2.9805   3.1745   3.1745   3.6005   3.6005   3.7664   3.7664
     4.5869   4.5869   5.2851   5.2851   6.3536   6.3536   6.9479   6.9479
     7.2982   7.2982

          k =-0.7622-0.3224 0.0000 ( 36511 PWs)   bands (ev):

   -44.1507 -44.1507 -22.2832 -22.2832 -22.2494 -22.2494 -22.0671 -22.0670
    -6.8250  -6.7225  -6.3557  -6.1639  -5.9442  -5.2997  -5.2698  -5.0586
    -4.6382  -4.5904   0.0147   0.2471   0.6201   1.1156   1.1704   1.2149
     1.4996   1.6601   1.9414   1.9582   2.3440   2.4401   2.5228   2.7781
     2.7998   3.1709   3.2664   3.3812   3.5950   3.6559   3.7820   3.7940
     3.9399   4.4974   5.7640   6.1679   6.2976   6.6480   6.7385   6.8918
     7.1677   7.5618

          k =-0.7622-0.3224 0.1485 ( 36492 PWs)   bands (ev):

   -44.1507 -44.1507 -22.2832 -22.2832 -22.2494 -22.2494 -22.0671 -22.0670
    -6.8088  -6.7353  -6.3497  -6.2422  -5.8168  -5.4187  -5.2001  -5.0797
    -4.6257  -4.5931   0.0806   0.3639   0.5179   0.9326   1.1584   1.1907
     1.5440   1.6639   1.7027   2.1884   2.2370   2.6301   2.6899   2.8249
     2.8770   3.1692   3.1821   3.3596   3.4791   3.6246   3.6527   3.8663
     3.9214   4.7251   5.3627   6.2715   6.5278   6.6048   6.7349   6.9314
     7.0050   7.4354

          k =-0.7622-0.3224-0.2971 ( 36508 PWs)   bands (ev):

   -44.1507 -44.1507 -22.2832 -22.2832 -22.2494 -22.2494 -22.0670 -22.0670
    -6.7703  -6.7703  -6.3191  -6.3191  -5.6087  -5.6087  -5.1330  -5.1330
    -4.6048  -4.6048   0.2668   0.2668   0.6971   0.6971   1.0408   1.0408
     1.5806   1.5806   2.0397   2.0397   2.4385   2.4385   2.8079   2.8079
     2.9979   2.9979   3.3033   3.3033   3.5746   3.5746   3.7925   3.7925
     4.1559   4.1559   5.9510   5.9510   6.3664   6.3664   6.8960   6.8960
     7.2627   7.2627

          k =-0.5081-0.2579 0.0000 ( 36480 PWs)   bands (ev):

   -44.1516 -44.1516 -22.2881 -22.2881 -22.2254 -22.2254 -22.0701 -22.0700
    -7.2124  -6.8831  -6.6194  -6.6052  -6.3040  -5.2270  -5.1275  -4.7607
    -4.6935  -4.4187   0.5228   0.7055   0.7260   1.2787   1.3088   1.5539
     1.6573   1.8180   1.9618   2.1740   2.2390   2.3071   2.3856   3.2909
     3.3417   3.3530   3.4449   3.4815   3.7367   3.8630   3.8987   4.0790
     4.6145   5.3068   5.3724   5.7904   5.9855   6.6404   6.6744   6.7606
     7.3124   7.5779

          k =-0.5081-0.2579 0.1485 ( 36485 PWs)   bands (ev):

   -44.1516 -44.1516 -22.2881 -22.2881 -22.2254 -22.2254 -22.0701 -22.0700
    -7.1789  -6.9551  -6.6316  -6.6206  -6.1494  -5.5059  -4.9383  -4.7283
    -4.6921  -4.4485   0.5191   0.7471   0.8624   1.0786   1.3014   1.4288
     1.5387   1.6763   2.0476   2.0672   2.3206   2.6045   2.8485   3.3009
     3.3154   3.3603   3.4626   3.4974   3.6360   3.7304   3.8275   4.1401
     4.3523   4.5843   6.0017   6.0683   6.2113   6.6429   6.6686   6.6930
     7.1632   7.4750

          k =-0.5081-0.2579-0.2971 ( 36478 PWs)   bands (ev):

   -44.1516 -44.1516 -22.2881 -22.2881 -22.2254 -22.2254 -22.0701 -22.0701
    -7.0840  -7.0840  -6.6324  -6.6324  -5.8462  -5.8462  -4.8126  -4.8126
    -4.5476  -4.5476   0.6259   0.6259   1.0921   1.0921   1.2196   1.2196
     1.4586   1.4586   2.0575   2.0575   2.7978   2.7978   3.1668   3.1668
     3.3501   3.3501   3.4101   3.4101   3.6938   3.6938   3.8227   3.8227
     4.2412   4.2412   6.2178   6.2178   6.6076   6.6076   6.7459   6.7459
     7.0900   7.0900

          k =-0.2541-0.1934 0.0000 ( 36410 PWs)   bands (ev):

   -44.1525 -44.1525 -22.2928 -22.2928 -22.2013 -22.2013 -22.0731 -22.0730
    -7.5345  -7.0725  -6.9005  -6.7460  -6.5030  -5.2889  -5.1064  -4.8692
    -4.7960  -4.0022   0.5613   0.8958   0.9191   1.2047   1.3212   1.4806
     1.9536   2.1141   2.2236   2.4918   2.5713   3.0847   3.3941   3.5569
     3.6053   3.6918   3.7796   3.8099   3.9438   4.1470   4.1930   4.2256
     4.4020   4.6780   5.7412   6.0098   6.3311   6.5903   6.6047   6.8525
     6.9971   7.0669

          k =-0.2541-0.1934 0.1485 ( 36427 PWs)   bands (ev):

   -44.1525 -44.1525 -22.2928 -22.2928 -22.2013 -22.2013 -22.0731 -22.0731
    -7.4964  -7.2143  -6.8232  -6.7529  -6.3691  -5.6383  -4.9180  -4.8144
    -4.7007  -4.0947   0.5864   0.9176   1.0067   1.0321   1.1650   1.6164
     1.8659   2.3172   2.4878   2.5069   2.5668   2.9125   3.2630   3.3359
     3.5319   3.6482   3.7286   3.8864   3.9709   4.0743   4.1833   4.2302
     4.6792   5.0189   5.7871   5.8388   6.1889   6.3261   6.5560   6.6881
     7.2171   7.2853

          k =-0.2541-0.1934-0.2971 ( 36422 PWs)   bands (ev):

   -44.1525 -44.1525 -22.2928 -22.2928 -22.2013 -22.2013 -22.0731 -22.0731
    -7.3850  -7.3850  -6.7752  -6.7752  -6.0430  -6.0430  -4.8593  -4.8593
    -4.3497  -4.3497   0.7202   0.7202   1.0317   1.0317   1.2969   1.2969
     2.2933   2.2933   2.5626   2.5626   2.7041   2.7041   3.1264   3.1264
     3.5166   3.5166   3.8017   3.8017   4.0226   4.0226   4.2236   4.2236
     5.1775   5.1775   5.7023   5.7023   6.0725   6.0725   6.5558   6.5558
     7.4122   7.4122

          k = 0.0000-0.1290 0.0000 ( 36417 PWs)   bands (ev):

   -44.1529 -44.1529 -22.2947 -22.2947 -22.1913 -22.1913 -22.0744 -22.0743
    -7.6533  -7.1586  -7.0039  -6.7858  -6.5562  -5.3246  -5.1139  -4.9082
    -4.8408  -3.8640   0.4682   0.7291   0.7788   1.0662   1.5166   1.5993
     2.4200   2.4826   2.6324   3.0123   3.0307   3.0669   3.1428   3.4573
     3.4977   3.6044   3.7874   4.0157   4.1135   4.2365   4.2697   4.6271
     5.1177   5.5091   5.5990   5.6315   5.8661   6.0800   6.4390   6.7724
     6.9375   7.2765

          k = 0.0000-0.1290 0.1485 ( 36419 PWs)   bands (ev):

   -44.1529 -44.1529 -22.2947 -22.2947 -22.1913 -22.1913 -22.0744 -22.0743
    -7.6141  -7.3201  -6.8894  -6.7939  -6.4370  -5.6941  -4.9327  -4.8553
    -4.7021  -3.9802   0.5076   0.7671   0.9268   1.0455   1.0801   2.0307
     2.1298   2.4452   2.5938   3.0313   3.0521   3.1124   3.2925   3.3433
     3.6663   3.7031   3.7669   3.9821   4.0639   4.2617   4.2855   4.6431
     4.9153   5.0451   5.7263   5.9236   6.0466   6.0749   6.5818   6.7298
     6.7720   7.2585

          k = 0.0000-0.1290-0.2971 ( 36464 PWs)   bands (ev):

   -44.1529 -44.1529 -22.2947 -22.2947 -22.1913 -22.1913 -22.0743 -22.0743
    -7.4992  -7.4992  -6.8212  -6.8212  -6.1141  -6.1141  -4.8904  -4.8904
    -4.2892  -4.2892   0.6976   0.6976   0.8753   0.8753   1.4522   1.4522
     2.5130   2.5130   2.7063   2.7063   3.0363   3.0363   3.3346   3.3346
     3.7992   3.7992   3.9057   3.9057   4.2343   4.2343   4.4334   4.4334
     4.7184   4.7184   5.9513   5.9513   6.2625   6.2625   6.3811   6.3811
     7.1593   7.1593

          k = 1.0162 0.0000 0.0000 ( 36499 PWs)   bands (ev):

   -44.1503 -44.1503 -22.2810 -22.2810 -22.2595 -22.2595 -22.0658 -22.0658
    -6.6862  -6.6662  -5.7880  -5.7791  -5.6845  -5.6722  -5.5270  -5.5251
    -4.5751  -4.5561   0.0694   0.1166   0.4185   0.4576   1.0048   1.0319
     1.4792   1.6569   2.2343   2.3198   2.3402   2.3615   2.7956   2.8149
     2.9057   2.9062   3.2208   3.2992   3.2995   3.4812   3.5780   3.6548
     3.7950   3.9585   6.3623   6.4081   6.4481   6.5525   6.9579   6.9997
     7.0068   7.0205

          k = 1.0162 0.0000 0.1485 ( 36485 PWs)   bands (ev):

   -44.1503 -44.1503 -22.2810 -22.2810 -22.2595 -22.2595 -22.0658 -22.0658
    -6.6827  -6.6684  -5.7958  -5.7881  -5.6890  -5.6831  -5.5072  -5.5045
    -4.5779  -4.5645  -0.0124   0.0029   0.6449   0.6543   1.0421   1.0466
     1.4730   1.5729   1.9400   1.9689   2.3552   2.3690   2.6890   2.8275
     2.9739   3.0369   3.1027   3.2230   3.5286   3.6356   3.6666   3.6940
     4.0854   4.1435   5.8428   5.8882   6.3831   6.4658   6.9222   6.9412
     7.2395   7.2427

          k = 1.0162 0.0000-0.2971 ( 36514 PWs)   bands (ev):

   -44.1503 -44.1503 -22.2810 -22.2810 -22.2595 -22.2595 -22.0658 -22.0658
    -6.6749  -6.6749  -5.8003  -5.8003  -5.6914  -5.6914  -5.4880  -5.4880
    -4.5769  -4.5769  -0.0646  -0.0646   0.9037   0.9037   1.0377   1.0377
     1.5412   1.5412   1.5918   1.5918   2.3488   2.3488   2.7577   2.7577
     3.0432   3.0432   3.1317   3.1317   3.6074   3.6074   3.7581   3.7581
     4.5873   4.5873   5.2870   5.2870   6.3533   6.3533   6.9502   6.9502
     7.2982   7.2982

          k = 1.2703 0.0645 0.0000 ( 36468 PWs)   bands (ev):

   -44.1507 -44.1507 -22.2832 -22.2832 -22.2494 -22.2494 -22.0671 -22.0670
    -6.8127  -6.7268  -6.3652  -6.1613  -5.9451  -5.3046  -5.2691  -5.0589
    -4.6410  -4.5863   0.0209   0.2362   0.5981   1.1057   1.1818   1.2005
     1.5034   1.7084   1.9310   2.0017   2.4124   2.4363   2.5414   2.7945
     2.8180   3.0968   3.2761   3.4481   3.5448   3.5514   3.7796   3.8446
     3.9086   4.4388   5.7659   6.1686   6.3296   6.5904   6.7766   6.9474
     7.1321   7.5692

          k = 1.2703 0.0645 0.1485 ( 36490 PWs)   bands (ev):

   -44.1507 -44.1507 -22.2832 -22.2832 -22.2494 -22.2494 -22.0671 -22.0670
    -6.7980  -6.7364  -6.3589  -6.2443  -5.8154  -5.4185  -5.2033  -5.0807
    -4.6275  -4.5902   0.0821   0.3594   0.5067   0.9177   1.1602   1.1833
     1.5926   1.6456   1.6892   2.2657   2.3136   2.6248   2.6952   2.8414
     2.8860   3.1051   3.2119   3.3659   3.4258   3.5812   3.7213   3.8296
     3.8467   4.7241   5.3386   6.2948   6.4971   6.6111   6.7345   6.9645
     7.0195   7.4079

          k = 1.2703 0.0645-0.2971 ( 36480 PWs)   bands (ev):

   -44.1507 -44.1507 -22.2832 -22.2832 -22.2494 -22.2494 -22.0670 -22.0670
    -6.7646  -6.7646  -6.3263  -6.3263  -5.6070  -5.6070  -5.1355  -5.1355
    -4.6044  -4.6044   0.2628   0.2628   0.7011   0.7011   1.0237   1.0237
     1.5842   1.5842   2.0706   2.0706   2.5001   2.5001   2.8307   2.8307
     2.9935   2.9935   3.2283   3.2283   3.5816   3.5816   3.7809   3.7809
     4.1353   4.1353   5.9298   5.9298   6.3632   6.3632   6.9483   6.9483
     7.2217   7.2217

          k =-0.5081-0.3869 0.0000 ( 36463 PWs)   bands (ev):

   -44.1516 -44.1516 -22.2881 -22.2881 -22.2254 -22.2254 -22.0701 -22.0700
    -7.1959  -6.8796  -6.6356  -6.6024  -6.3163  -5.2249  -5.1362  -4.7645
    -4.6870  -4.4197   0.5304   0.6910   0.7180   1.3186   1.4162   1.5948
     1.6451   1.8206   1.9357   2.2163   2.2688   2.3116   2.3887   3.2183
     3.3331   3.3651   3.3760   3.4916   3.7002   3.7744   3.8763   4.0674
     4.6033   5.2912   5.3632   5.7093   6.0447   6.6755   6.7533   6.7904
     7.2248   7.5689

          k =-0.5081-0.3869 0.1485 ( 36477 PWs)   bands (ev):

   -44.1516 -44.1516 -22.2881 -22.2881 -22.2254 -22.2254 -22.0701 -22.0700
    -7.1625  -6.9442  -6.6451  -6.6369  -6.1525  -5.5040  -4.9513  -4.7271
    -4.6888  -4.4466   0.5250   0.7502   0.8489   1.0751   1.4031   1.4362
     1.5872   1.6895   2.0576   2.0740   2.3110   2.6517   2.8681   3.1881
     3.3318   3.3588   3.3978   3.4974   3.6417   3.7081   3.7725   4.1055
     4.2885   4.5818   5.9470   6.0770   6.2074   6.5775   6.7697   6.8105
     7.0837   7.4792

          k =-0.5081-0.3869-0.2971 ( 36492 PWs)   bands (ev):

   -44.1516 -44.1516 -22.2881 -22.2881 -22.2254 -22.2254 -22.0701 -22.0701
    -7.0686  -7.0686  -6.6509  -6.6509  -5.8447  -5.8447  -4.8221  -4.8221
    -4.5418  -4.5418   0.6351   0.6351   1.0894   1.0894   1.2040   1.2040
     1.5569   1.5569   2.0507   2.0507   2.8254   2.8254   3.2013   3.2013
     3.2868   3.2868   3.3730   3.3730   3.6748   3.6748   3.8103   3.8103
     4.1796   4.1796   6.1801   6.1801   6.6368   6.6368   6.7547   6.7547
     7.1014   7.1014

          k =-0.2541-0.3224 0.0000 ( 36485 PWs)   bands (ev):

   -44.1525 -44.1525 -22.2928 -22.2928 -22.2013 -22.2013 -22.0731 -22.0730
    -7.5184  -7.0590  -6.8976  -6.7643  -6.5277  -5.2873  -5.1171  -4.8745
    -4.7874  -4.0037   0.5881   0.9332   1.0228   1.2539   1.3934   1.4783
     1.9885   2.1458   2.2254   2.4105   2.5181   3.2026   3.2583   3.3724
     3.5520   3.6766   3.7429   3.8369   3.9244   4.0729   4.1513   4.1839
     4.3962   4.6161   5.8202   6.0253   6.3708   6.5457   6.6903   6.8778
     6.9406   7.0083

          k =-0.2541-0.3224 0.1485 ( 36445 PWs)   bands (ev):

   -44.1525 -44.1525 -22.2928 -22.2928 -22.2013 -22.2013 -22.0731 -22.0731
    -7.4803  -7.1986  -6.8351  -6.7718  -6.3803  -5.6369  -4.9393  -4.8109
    -4.6919  -4.0944   0.6063   0.9597   1.0508   1.1333   1.2403   1.6415
     1.8740   2.3118   2.4266   2.4932   2.5686   2.8971   3.2887   3.3397
     3.3616   3.5183   3.7458   3.8817   3.9194   4.0666   4.1003   4.1595
     4.6855   4.9844   5.7703   5.8639   6.1788   6.3177   6.6584   6.7229
     7.1632   7.2750

          k =-0.2541-0.3224-0.2971 ( 36442 PWs)   bands (ev):

   -44.1525 -44.1525 -22.2928 -22.2928 -22.2013 -22.2013 -22.0731 -22.0731
    -7.3689  -7.3689  -6.7945  -6.7945  -6.0440  -6.0440  -4.8679  -4.8679
    -4.3454  -4.3454   0.7313   0.7313   1.1624   1.1624   1.3107   1.3107
     2.2877   2.2877   2.5044   2.5044   2.7126   2.7126   3.1812   3.1812
     3.3453   3.3453   3.7926   3.7926   4.0116   4.0116   4.1445   4.1445
     5.1765   5.1765   5.6597   5.6597   6.0449   6.0449   6.6635   6.6635
     7.3779   7.3780

          k = 0.0000-0.2579 0.0000 ( 36445 PWs)   bands (ev):

   -44.1529 -44.1529 -22.2947 -22.2947 -22.1913 -22.1913 -22.0744 -22.0743
    -7.6390  -7.1436  -7.0014  -6.8037  -6.5814  -5.3236  -5.1237  -4.9159
    -4.8305  -3.8656   0.5141   0.7927   0.8448   1.1077   1.5716   1.6236
     2.4285   2.4828   2.6503   3.0197   3.0444   3.0626   3.2431   3.2673
     3.2758   3.5782   3.7215   3.9847   4.0967   4.1134   4.1446   4.6299
     5.0986   5.4430   5.6490   5.6663   5.9002   6.1433   6.5372   6.6911
     6.9391   7.2386

          k = 0.0000-0.2579 0.1485 ( 36452 PWs)   bands (ev):

   -44.1529 -44.1529 -22.2947 -22.2947 -22.1913 -22.1913 -22.0744 -22.0743
    -7.5999  -7.3057  -6.8973  -6.8116  -6.4506  -5.6934  -4.9544  -4.8504
    -4.6940  -3.9802   0.5431   0.8742   0.9791   1.0830   1.1089   2.0531
     2.1641   2.4546   2.6095   3.0209   3.0457   3.1123   3.1910   3.2166
     3.6369   3.6717   3.6814   3.9255   4.0597   4.1399   4.1734   4.6457
     4.9079   5.0262   5.7533   5.9317   6.0735   6.0950   6.5463   6.7742
     6.7997   7.2226

          k = 0.0000-0.2579-0.2971 ( 36454 PWs)   bands (ev):

   -44.1529 -44.1529 -22.2947 -22.2947 -22.1913 -22.1913 -22.0743 -22.0743
    -7.4849  -7.4849  -6.8380  -6.8380  -6.1165  -6.1165  -4.8981  -4.8981
    -4.2858  -4.2858   0.7309   0.7309   0.9641   0.9641   1.4756   1.4756
     2.5249   2.5249   2.7245   2.7245   3.0275   3.0275   3.1892   3.1892
     3.7695   3.7695   3.8923   3.8923   4.0962   4.0962   4.4261   4.4261
     4.7188   4.7188   5.9245   5.9245   6.3026   6.3026   6.3851   6.3851
     7.1489   7.1489

          k = 1.5243 0.0000 0.0000 ( 36439 PWs)   bands (ev):

   -44.1516 -44.1516 -22.2881 -22.2881 -22.2254 -22.2254 -22.0701 -22.0700
    -7.1885  -6.8787  -6.6420  -6.6012  -6.3216  -5.2240  -5.1398  -4.7655
    -4.6847  -4.4201   0.5346   0.6852   0.7120   1.3223   1.5501   1.5552
     1.6234   1.8167   1.9407   2.2403   2.2595   2.3064   2.4033   3.1664
     3.3091   3.3458   3.3898   3.5668   3.6667   3.6887   3.8704   4.0817
     4.5982   5.2805   5.3599   5.6777   6.0717   6.6393   6.8170   6.8308
     7.1782   7.5687

          k = 1.5243 0.0000 0.1485 ( 36476 PWs)   bands (ev):

   -44.1516 -44.1516 -22.2881 -22.2881 -22.2254 -22.2254 -22.0701 -22.0700
    -7.1553  -6.9396  -6.6484  -6.6465  -6.1537  -5.5032  -4.9565  -4.7270
    -4.6872  -4.4459   0.5278   0.7501   0.8431   1.0738   1.4234   1.4927
     1.5691   1.7085   2.0690   2.0759   2.3019   2.6642   2.8807   3.1362
     3.2892   3.3726   3.3843   3.5800   3.5972   3.7021   3.7241   4.1178
     4.2473   4.5809   5.9207   6.0846   6.2065   6.5489   6.8146   6.8733
     7.0351   7.4903

          k = 1.5243 0.0000-0.2971 ( 36508 PWs)   bands (ev):

   -44.1516 -44.1516 -22.2881 -22.2881 -22.2254 -22.2254 -22.0701 -22.0701
    -7.0618  -7.0618  -6.6590  -6.6590  -5.8440  -5.8440  -4.8260  -4.8260
    -4.5394  -4.5394   0.6387   0.6387   1.0880   1.0880   1.1988   1.1988
     1.6036   1.6036   2.0446   2.0446   2.8379   2.8379   3.1602   3.1602
     3.3006   3.3006   3.3775   3.3775   3.6579   3.6579   3.8064   3.8064
     4.1542   4.1542   6.1648   6.1648   6.6315   6.6315   6.7721   6.7721
     7.1109   7.1109

          k =-0.2541-0.4514 0.0000 ( 36444 PWs)   bands (ev):

   -44.1525 -44.1525 -22.2928 -22.2928 -22.2013 -22.2013 -22.0731 -22.0730
    -7.5063  -7.0499  -6.8956  -6.7758  -6.5468  -5.2862  -5.1250  -4.8761
    -4.7832  -4.0048   0.5964   0.9439   1.1349   1.2908   1.4748   1.4826
     2.0271   2.1711   2.2160   2.3176   2.4411   3.1581   3.2461   3.3089
     3.5552   3.6605   3.7422   3.7649   3.9272   4.0263   4.1184   4.1576
     4.4535   4.5349   5.8853   6.0328   6.3897   6.5078   6.7442   6.8703
     6.8978   6.9982

          k =-0.2541-0.4514 0.1485 ( 36461 PWs)   bands (ev):

   -44.1525 -44.1525 -22.2928 -22.2928 -22.2013 -22.2013 -22.0731 -22.0731
    -7.4682  -7.1869  -6.8450  -6.7850  -6.3881  -5.6358  -4.9528  -4.8096
    -4.6862  -4.0941   0.6113   0.9763   1.0630   1.2686   1.3185   1.6628
     1.8897   2.2880   2.3325   2.4646   2.5768   2.8840   3.2315   3.2453
     3.3738   3.5253   3.7734   3.8368   3.8906   3.9967   4.0895   4.1229
     4.7059   4.9514   5.7616   5.8843   6.1885   6.2719   6.7262   6.7471
     7.1329   7.2674

          k =-0.2541-0.4514-0.2971 ( 36490 PWs)   bands (ev):

   -44.1525 -44.1525 -22.2928 -22.2928 -22.2013 -22.2013 -22.0731 -22.0731
    -7.3568  -7.3568  -6.8090  -6.8090  -6.0446  -6.0446  -4.8741  -4.8741
    -4.3425  -4.3425   0.7329   0.7329   1.2798   1.2798   1.3302   1.3302
     2.2671   2.2671   2.4437   2.4437   2.7169   2.7169   3.2022   3.2022
     3.2527   3.2527   3.7891   3.7891   3.9999   3.9999   4.0977   4.0977
     5.1776   5.1776   5.6350   5.6350   6.0195   6.0195   6.7283   6.7283
     7.3559   7.3559

          k = 0.0000-0.3869 0.0000 ( 36477 PWs)   bands (ev):

   -44.1529 -44.1529 -22.2947 -22.2947 -22.1913 -22.1913 -22.0744 -22.0743
    -7.6240  -7.1286  -6.9988  -6.8197  -6.6092  -5.3226  -5.1342  -4.9191
    -4.8241  -3.8672   0.5378   0.8072   1.0036   1.1729   1.6369   1.6464
     2.4373   2.4764   2.6694   2.9815   3.0079   3.0344   3.0582   3.0952
     3.3825   3.5514   3.7432   3.9151   3.9684   4.0092   4.1131   4.6329
     5.0800   5.4061   5.6665   5.7437   5.9365   6.1798   6.5883   6.6068
     6.9404   7.2089

          k = 0.0000-0.3869 0.1485 ( 36452 PWs)   bands (ev):

   -44.1529 -44.1529 -22.2947 -22.2947 -22.1913 -22.1913 -22.0744 -22.0743
    -7.5848  -7.2905  -6.9074  -6.8288  -6.4642  -5.6926  -4.9730  -4.8481
    -4.6866  -3.9801   0.5564   0.9866   1.0247   1.1384   1.2002   2.0789
     2.1933   2.4642   2.6261   2.9097   2.9469   3.0099   3.0389   3.2929
     3.6138   3.6595   3.6733   3.9084   4.0076   4.0552   4.0587   4.6486
     4.9005   5.0176   5.7901   5.9403   6.0882   6.0965   6.5028   6.7764
     6.8446   7.1877

          k = 0.0000-0.3869-0.2971 ( 36454 PWs)   bands (ev):

   -44.1529 -44.1529 -22.2947 -22.2947 -22.1913 -22.1913 -22.0743 -22.0743
    -7.4697  -7.4697  -6.8558  -6.8558  -6.1186  -6.1186  -4.9059  -4.9059
    -4.2823  -4.2823   0.7346   0.7346   1.1121   1.1121   1.5012   1.5012
     2.5373   2.5373   2.6926   2.6926   3.0182   3.0182   3.0229   3.0229
     3.7828   3.7828   3.8788   3.8788   3.9865   3.9865   4.4127   4.4127
     4.7194   4.7194   5.8948   5.8948   6.3278   6.3278   6.3894   6.3894
     7.1233   7.1233

          k =-2.0325 0.0000 0.0000 ( 36452 PWs)   bands (ev):

   -44.1529 -44.1529 -22.2947 -22.2947 -22.1913 -22.1913 -22.0744 -22.0743
    -7.6175  -7.1224  -6.9977  -6.8254  -6.6218  -5.3222  -5.1387  -4.9195
    -4.8222  -3.8679   0.5417   0.8135   1.1133   1.1746   1.6553   1.6782
     2.4410   2.4693   2.6778   2.8364   2.9361   3.0027   3.0565   3.1233
     3.4787   3.5401   3.7671   3.8010   3.9479   3.9573   4.1130   4.6342
     5.0724   5.3956   5.6738   5.7800   5.9535   6.1907   6.5378   6.6295
     6.9409   7.1981

          k =-2.0325 0.0000 0.1485 ( 36456 PWs)   bands (ev):

   -44.1529 -44.1529 -22.2947 -22.2947 -22.1913 -22.1913 -22.0744 -22.0743
    -7.5783  -7.2840  -6.9123  -6.8357  -6.4698  -5.6922  -4.9801  -4.8475
    -4.6837  -3.9801   0.5569   1.0268   1.0356   1.1782   1.2668   2.0901
     2.2046   2.4683   2.6334   2.7849   2.8402   3.0051   3.0361   3.3525
     3.5932   3.6504   3.7003   3.8815   3.9560   4.0154   4.0533   4.6499
     4.8974   5.0160   5.8095   5.9441   6.0766   6.1055   6.4834   6.7773
     6.8570   7.1746

          k =-2.0325 0.0000-0.2971 ( 36460 PWs)   bands (ev):

   -44.1529 -44.1529 -22.2947 -22.2947 -22.1913 -22.1913 -22.0743 -22.0743
    -7.4631  -7.4631  -6.8635  -6.8635  -6.1195  -6.1195  -4.9091  -4.9091
    -4.2809  -4.2809   0.7326   0.7326   1.1907   1.1907   1.5133   1.5133
     2.5426   2.5426   2.6333   2.6333   2.9829   2.9829   3.0142   3.0142
     3.7896   3.7896   3.8732   3.8732   3.9476   3.9476   4.4077   4.4077
     4.7197   4.7197   5.8810   5.8810   6.3354   6.3354   6.3912   6.3912
     7.1107   7.1107

     the Fermi energy is     5.3089 ev

!    total energy              =   -4240.93978717 Ry

     total all-electron energy =   -150287.633482 Ry
     estimated scf accuracy    <          2.8E-11 Ry
     smearing contrib. (-TS)   =      -0.00001954 Ry
     internal energy E=F+TS    =   -4240.93976764 Ry

     The total energy is F=E-TS. E is the sum of the following terms:
     one-electron contribution =    -165.13300146 Ry
     hartree contribution      =     116.03766207 Ry
     xc contribution           =    -201.42303765 Ry
     ewald contribution        =    -222.91145336 Ry
     one-center paw contrib.   =   -3767.50993724 Ry

     convergence has been achieved in  16 iterations

     Forces acting on atoms (cartesian axes, Ry/au):

     atom    1 type  1   force =     0.00000000   -0.01843159    0.00000000
     atom    2 type  1   force =     0.00000000    0.01843159    0.00000000
     atom    3 type  2   force =     0.00000000    0.00115154    0.00000000
     atom    4 type  2   force =     0.00000000   -0.00115154    0.00000000
     atom    5 type  2   force =     0.00000000    0.00398356    0.00029853
     atom    6 type  2   force =     0.00000000   -0.00398356   -0.00029853
     atom    7 type  2   force =     0.00000000    0.00398356   -0.00029853
     atom    8 type  2   force =     0.00000000   -0.00398356    0.00029853
     atom    9 type  2   force =     0.00000000    0.01843976    0.01554983
     atom   10 type  2   force =     0.00000000   -0.01843976   -0.01554983
     atom   11 type  2   force =     0.00000000    0.01843976   -0.01554983
     atom   12 type  2   force =     0.00000000   -0.01843976    0.01554983

     Total force =     0.055437     Total SCF correction =     0.000009


     Computing stress (Cartesian axis) and pressure

          total   stress  (Ry/bohr**3)                   (kbar)     P=       -4.38
  -0.00001900   0.00000000   0.00000000           -2.79        0.00        0.00
   0.00000000  -0.00002860   0.00000000            0.00       -4.21        0.00
   0.00000000   0.00000000  -0.00004170            0.00        0.00       -6.13

 
     init_run     :     18.72s CPU     19.19s WALL (       1 calls)
     electrons    :    911.30s CPU    921.71s WALL (       1 calls)
     forces       :      6.49s CPU      6.70s WALL (       1 calls)
     stress       :     41.62s CPU     42.18s WALL (       1 calls)

     Called by init_run:
     wfcinit      :     14.29s CPU     14.46s WALL (       1 calls)
     potinit      :      1.39s CPU      1.44s WALL (       1 calls)
     hinit0       :      1.80s CPU      1.84s WALL (       1 calls)

     Called by electrons:
     c_bands      :    767.17s CPU    770.62s WALL (      17 calls)
     sum_band     :    120.82s CPU    124.63s WALL (      17 calls)
     v_of_rho     :      5.12s CPU      5.39s WALL (      17 calls)
     newd         :     12.97s CPU     16.01s WALL (      17 calls)
     PAW_pot      :      5.40s CPU      5.41s WALL (      17 calls)
     mix_rho      :      0.77s CPU      0.80s WALL (      17 calls)

     Called by c_bands:
     init_us_2    :     10.48s CPU     10.55s WALL (    2331 calls)
     cegterg      :    697.63s CPU    700.57s WALL (    1071 calls)

     Called by *egterg:
     cdiaghg      :     27.21s CPU     27.28s WALL (    8013 calls)
     h_psi        :    533.31s CPU    536.10s WALL (    8139 calls)
     s_psi        :     43.93s CPU     44.00s WALL (    8139 calls)
     g_psi        :      1.95s CPU      1.96s WALL (    7005 calls)

     Called by h_psi:
     h_psi:calbec :     37.36s CPU     37.44s WALL (    8139 calls)
     vloc_psi     :    449.26s CPU    451.79s WALL (    8139 calls)
     add_vuspsi   :     43.78s CPU     43.86s WALL (    8139 calls)

     General routines
     calbec       :     48.75s CPU     48.86s WALL (    9525 calls)
     fft          :      3.11s CPU      3.22s WALL (     245 calls)
     ffts         :      0.07s CPU      0.07s WALL (      34 calls)
     fftw         :    403.42s CPU    405.71s WALL (  415468 calls)
     interpolate  :      0.27s CPU      0.27s WALL (      17 calls)
 
     Parallel routines
 
     PWSCF        :  16m18.38s CPU  16m30.09s WALL

 
   This run was terminated on:  15:35:18  19Nov2021            

=------------------------------------------------------------------------------=
   JOB DONE.
=------------------------------------------------------------------------------=
