
     Program PWSCF v.6.8 starts on 19Nov2021 at 15:29:38 

     This program is part of the open-source Quantum ESPRESSO suite
     for quantum simulation of materials; please cite
         "P. Giannozzi et al., J. Phys.:Condens. Matter 21 395502 (2009);
         "P. Giannozzi et al., J. Phys.:Condens. Matter 29 465901 (2017);
         "P. Giannozzi et al., J. Chem. Phys. 152 154105 (2020);
          URL http://www.quantum-espresso.org", 
     in publications or presentations arising from this work. More details at
     http://www.quantum-espresso.org/quote

     Parallel version (MPI), running on    10 processors

     MPI processes distributed on     1 nodes
     R & G space division:  proc/nbgrp/npool/nimage =      10
     69828 MiB available memory on the printing compute node when the environment starts
 
     Waiting for input...
     Reading input from standard input

     Current dimensions of program PWSCF are:
     Max number of different atomic species (ntypx) = 10
     Max number of k-points (npk) =  40000
     Max angular momentum in pseudopotentials (lmaxx) =  4
     file Zr.pbe-spn-kjpaw_psl.1.0.0.UPF: wavefunction(s)  4S 4P renormalized
     file Te.pbe-n-kjpaw_psl.1.0.0.UPF: wavefunction(s)  5S 5P renormalized
     Message from routine setup:
     using ibrav=0 with symmetry is DISCOURAGED, use correct ibrav instead

     Subspace diagonalization in iterative solution of the eigenvalue problem:
     a serial algorithm will be used

 
     Parallelization info
     --------------------
     sticks:   dense  smooth     PW     G-vecs:    dense   smooth      PW
     Min         734     293     87               115340    29174    4753
     Max         735     295     88               115345    29176    4760
     Sum        7345    2937    873              1153415   291749   47557
 
     Using Slab Decomposition
 


     bravais-lattice index     =            0
     lattice parameter (alat)  =      15.5510  a.u.
     unit-cell volume          =    3018.5011 (a.u.)^3
     number of atoms/cell      =           12
     number of atomic types    =            2
     number of electrons       =        84.00
     number of Kohn-Sham states=           50
     kinetic-energy cutoff     =      80.0000  Ry
     charge density cutoff     =     800.0000  Ry
     scf convergence threshold =      1.0E-10
     mixing beta               =       0.7000
     number of iterations used =            8  plain     mixing
     Exchange-correlation= SLA  PW   PBX  PBC
                           (   1   4   3   4   0   0   0)

     celldm(1)=  15.551040  celldm(2)=   0.000000  celldm(3)=   0.000000
     celldm(4)=   0.000000  celldm(5)=   0.000000  celldm(6)=   0.000000

     crystal axes: (cart. coord. in units of alat)
               a(1) = (   0.246007  -0.969268   0.000000 )  
               a(2) = (   0.246007   0.969268   0.000000 )  
               a(3) = (   0.000000   0.000000   1.683031 )  

     reciprocal axes: (cart. coord. in units 2 pi/alat)
               b(1) = (  2.032465 -0.515853  0.000000 )  
               b(2) = (  2.032465  0.515853  0.000000 )  
               b(3) = (  0.000000  0.000000  0.594166 )  


     PseudoPot. # 1 for Zr read from file:
     pseudo/Zr.pbe-spn-kjpaw_psl.1.0.0.UPF
     MD5 check sum: 02112c41713a0468aff2bb39ef194e36
     Pseudo is Projector augmented-wave + core cor, Zval = 12.0
     Generated using &quot;atomic&quot; code by A. Dal Corso  v.6.2.2
     Shape of augmentation charge: PSQ
     Using radial grid of 1225 points,  6 beta functions with: 
                l(1) =   0
                l(2) =   0
                l(3) =   1
                l(4) =   1
                l(5) =   2
                l(6) =   2
     Q(r) pseudized with 0 coefficients 


     PseudoPot. # 2 for Te read from file:
     pseudo/Te.pbe-n-kjpaw_psl.1.0.0.UPF
     MD5 check sum: 66247bff2bd9dbf220fbb0bf5ab56e9d
     Pseudo is Projector augmented-wave + core cor, Zval =  6.0
     Generated using &quot;atomic&quot; code by A. Dal Corso  v.6.3
     Shape of augmentation charge: PSQ
     Using radial grid of 1245 points,  6 beta functions with: 
                l(1) =   0
                l(2) =   0
                l(3) =   1
                l(4) =   1
                l(5) =   2
                l(6) =   2
     Q(r) pseudized with 0 coefficients 


     atomic species   valence    mass     pseudopotential
        Zr            12.00    91.22000     Zr( 1.00)
        Te             6.00   127.60000     Te( 1.00)

      8 Sym. Ops., with inversion, found ( 4 have fractional translation)



   Cartesian axes

     site n.     atom                  positions (alat units)
         1           Zr  tau(   1) = (   0.0000000   0.6143894   0.4207578  )
         2           Zr  tau(   2) = (   0.2460067   0.3548787   1.2622733  )
         3           Te  tau(   3) = (   0.2460067   0.3344249   0.4207578  )
         4           Te  tau(   4) = (   0.0000000   0.6348432   1.2622733  )
         5           Te  tau(   5) = (   0.2460067   0.8058282   0.2493346  )
         6           Te  tau(   6) = (   0.0000000   0.1634399   1.4336964  )
         7           Te  tau(   7) = (   0.2460067   0.8058282   0.5921809  )
         8           Te  tau(   8) = (   0.0000000   0.1634399   1.0908502  )
         9           Te  tau(   9) = (   0.0000000   0.3995073   0.7162044  )
        10           Te  tau(  10) = (   0.2460067   0.5697608   0.9668266  )
        11           Te  tau(  11) = (   0.0000000   0.3995073   0.1253111  )
        12           Te  tau(  12) = (   0.2460067   0.5697608   1.5577199  )

     number of k points=    63  Methfessel-Paxton smearing, width (Ry)=  0.0030
                       cart. coord. in units 2pi/alat
        k(    1) = (   0.0000000   0.0000000   0.0000000), wk =   0.0078125
        k(    2) = (   0.0000000   0.0000000   0.1485415), wk =   0.0156250
        k(    3) = (   0.0000000   0.0000000  -0.2970830), wk =   0.0078125
        k(    4) = (   0.2540581   0.0644816   0.0000000), wk =   0.0312500
        k(    5) = (   0.2540581   0.0644816   0.1485415), wk =   0.0625000
        k(    6) = (   0.2540581   0.0644816  -0.2970830), wk =   0.0312500
        k(    7) = (   0.5081162   0.1289633   0.0000000), wk =   0.0312500
        k(    8) = (   0.5081162   0.1289633   0.1485415), wk =   0.0625000
        k(    9) = (   0.5081162   0.1289633  -0.2970830), wk =   0.0312500
        k(   10) = (   0.7621743   0.1934449   0.0000000), wk =   0.0312500
        k(   11) = (   0.7621743   0.1934449   0.1485415), wk =   0.0625000
        k(   12) = (   0.7621743   0.1934449  -0.2970830), wk =   0.0312500
        k(   13) = (  -1.0162324  -0.2579266   0.0000000), wk =   0.0156250
        k(   14) = (  -1.0162324  -0.2579266   0.1485415), wk =   0.0312500
        k(   15) = (  -1.0162324  -0.2579266  -0.2970830), wk =   0.0156250
        k(   16) = (   0.5081162   0.0000000   0.0000000), wk =   0.0156250
        k(   17) = (   0.5081162   0.0000000   0.1485415), wk =   0.0312500
        k(   18) = (   0.5081162   0.0000000  -0.2970830), wk =   0.0156250
        k(   19) = (   0.7621743   0.0644816   0.0000000), wk =   0.0312500
        k(   20) = (   0.7621743   0.0644816   0.1485415), wk =   0.0625000
        k(   21) = (   0.7621743   0.0644816  -0.2970830), wk =   0.0312500
        k(   22) = (   1.0162324   0.1289633   0.0000000), wk =   0.0312500
        k(   23) = (   1.0162324   0.1289633   0.1485415), wk =   0.0625000
        k(   24) = (   1.0162324   0.1289633  -0.2970830), wk =   0.0312500
        k(   25) = (  -0.7621743  -0.3224082   0.0000000), wk =   0.0312500
        k(   26) = (  -0.7621743  -0.3224082   0.1485415), wk =   0.0625000
        k(   27) = (  -0.7621743  -0.3224082  -0.2970830), wk =   0.0312500
        k(   28) = (  -0.5081162  -0.2579266   0.0000000), wk =   0.0312500
        k(   29) = (  -0.5081162  -0.2579266   0.1485415), wk =   0.0625000
        k(   30) = (  -0.5081162  -0.2579266  -0.2970830), wk =   0.0312500
        k(   31) = (  -0.2540581  -0.1934449   0.0000000), wk =   0.0312500
        k(   32) = (  -0.2540581  -0.1934449   0.1485415), wk =   0.0625000
        k(   33) = (  -0.2540581  -0.1934449  -0.2970830), wk =   0.0312500
        k(   34) = (   0.0000000  -0.1289633   0.0000000), wk =   0.0156250
        k(   35) = (   0.0000000  -0.1289633   0.1485415), wk =   0.0312500
        k(   36) = (   0.0000000  -0.1289633  -0.2970830), wk =   0.0156250
        k(   37) = (   1.0162324   0.0000000   0.0000000), wk =   0.0156250
        k(   38) = (   1.0162324   0.0000000   0.1485415), wk =   0.0312500
        k(   39) = (   1.0162324   0.0000000  -0.2970830), wk =   0.0156250
        k(   40) = (   1.2702905   0.0644816   0.0000000), wk =   0.0312500
        k(   41) = (   1.2702905   0.0644816   0.1485415), wk =   0.0625000
        k(   42) = (   1.2702905   0.0644816  -0.2970830), wk =   0.0312500
        k(   43) = (  -0.5081162  -0.3868899   0.0000000), wk =   0.0312500
        k(   44) = (  -0.5081162  -0.3868899   0.1485415), wk =   0.0625000
        k(   45) = (  -0.5081162  -0.3868899  -0.2970830), wk =   0.0312500
        k(   46) = (  -0.2540581  -0.3224082   0.0000000), wk =   0.0312500
        k(   47) = (  -0.2540581  -0.3224082   0.1485415), wk =   0.0625000
        k(   48) = (  -0.2540581  -0.3224082  -0.2970830), wk =   0.0312500
        k(   49) = (   0.0000000  -0.2579266   0.0000000), wk =   0.0156250
        k(   50) = (   0.0000000  -0.2579266   0.1485415), wk =   0.0312500
        k(   51) = (   0.0000000  -0.2579266  -0.2970830), wk =   0.0156250
        k(   52) = (   1.5243485   0.0000000   0.0000000), wk =   0.0156250
        k(   53) = (   1.5243485   0.0000000   0.1485415), wk =   0.0312500
        k(   54) = (   1.5243485   0.0000000  -0.2970830), wk =   0.0156250
        k(   55) = (  -0.2540581  -0.4513715   0.0000000), wk =   0.0312500
        k(   56) = (  -0.2540581  -0.4513715   0.1485415), wk =   0.0625000
        k(   57) = (  -0.2540581  -0.4513715  -0.2970830), wk =   0.0312500
        k(   58) = (   0.0000000  -0.3868899   0.0000000), wk =   0.0156250
        k(   59) = (   0.0000000  -0.3868899   0.1485415), wk =   0.0312500
        k(   60) = (   0.0000000  -0.3868899  -0.2970830), wk =   0.0156250
        k(   61) = (  -2.0324647   0.0000000   0.0000000), wk =   0.0078125
        k(   62) = (  -2.0324647   0.0000000   0.1485415), wk =   0.0156250
        k(   63) = (  -2.0324647   0.0000000  -0.2970830), wk =   0.0078125

     Dense  grid:  1153415 G-vectors     FFT dimensions: ( 144, 144, 240)

     Smooth grid:   291749 G-vectors     FFT dimensions: (  90,  90, 150)

     Estimated max dynamical RAM per process >     657.19 MB

     Estimated total dynamical RAM >       6.42 GB

     Initial potential from superposition of free atoms

     starting charge   83.99353, renormalised to   84.00000
     Starting wfcs are   66 randomized atomic wfcs
     Checking if some PAW data can be deallocated... 

     total cpu time spent up to now is       19.6 secs

     Self-consistent Calculation

     iteration #  1     ecut=    80.00 Ry     beta= 0.70
     Davidson diagonalization with overlap
     ethr =  1.00E-02,  avg # of iterations =  2.0

     Threshold (ethr) on eigenvalues was too large:
     Diagonalizing with lowered threshold

     Davidson diagonalization with overlap
     ethr =  3.64E-04,  avg # of iterations =  4.1

     total cpu time spent up to now is      103.6 secs

     total energy              =   -4240.70366269 Ry
     estimated scf accuracy    <       0.42327425 Ry

     iteration #  2     ecut=    80.00 Ry     beta= 0.70
     Davidson diagonalization with overlap
     ethr =  5.04E-04,  avg # of iterations =  7.4

     total cpu time spent up to now is      162.5 secs

     total energy              =   -4240.61517952 Ry
     estimated scf accuracy    <       2.16891890 Ry

     iteration #  3     ecut=    80.00 Ry     beta= 0.70
     Davidson diagonalization with overlap
     ethr =  5.04E-04,  avg # of iterations =  5.1

     total cpu time spent up to now is      212.8 secs

     total energy              =   -4240.90013319 Ry
     estimated scf accuracy    <       0.02310793 Ry

     iteration #  4     ecut=    80.00 Ry     beta= 0.70
     Davidson diagonalization with overlap
     c_bands:  1 eigenvalues not converged
     c_bands:  2 eigenvalues not converged
     c_bands:  1 eigenvalues not converged
     ethr =  2.75E-05,  avg # of iterations = 14.8

     total cpu time spent up to now is      297.3 secs

     total energy              =   -4240.92042872 Ry
     estimated scf accuracy    <       0.08871721 Ry

     iteration #  5     ecut=    80.00 Ry     beta= 0.70
     Davidson diagonalization with overlap
     ethr =  2.75E-05,  avg # of iterations =  4.0

     total cpu time spent up to now is      339.7 secs

     total energy              =   -4240.92177746 Ry
     estimated scf accuracy    <       0.02197764 Ry

     iteration #  6     ecut=    80.00 Ry     beta= 0.70
     Davidson diagonalization with overlap
     ethr =  2.62E-05,  avg # of iterations =  3.0

     total cpu time spent up to now is      378.3 secs

     total energy              =   -4240.92327897 Ry
     estimated scf accuracy    <       0.00249519 Ry

     iteration #  7     ecut=    80.00 Ry     beta= 0.70
     Davidson diagonalization with overlap
     c_bands:  1 eigenvalues not converged
     c_bands:  2 eigenvalues not converged
     c_bands:  1 eigenvalues not converged
     c_bands:  1 eigenvalues not converged
     c_bands:  1 eigenvalues not converged
     c_bands:  2 eigenvalues not converged
     c_bands:  1 eigenvalues not converged
     c_bands:  2 eigenvalues not converged
     c_bands:  2 eigenvalues not converged
     c_bands:  1 eigenvalues not converged
     c_bands:  1 eigenvalues not converged
     c_bands:  2 eigenvalues not converged
     ethr =  2.97E-06,  avg # of iterations = 14.3

     total cpu time spent up to now is      450.3 secs

     total energy              =   -4240.92482497 Ry
     estimated scf accuracy    <       0.00264105 Ry

     iteration #  8     ecut=    80.00 Ry     beta= 0.70
     Davidson diagonalization with overlap
     c_bands:  1 eigenvalues not converged
     c_bands:  1 eigenvalues not converged
     ethr =  2.97E-06,  avg # of iterations =  2.9

     total cpu time spent up to now is      487.0 secs

     total energy              =   -4240.92482703 Ry
     estimated scf accuracy    <       0.00057734 Ry

     iteration #  9     ecut=    80.00 Ry     beta= 0.70
     Davidson diagonalization with overlap
     c_bands:  1 eigenvalues not converged
     ethr =  6.87E-07,  avg # of iterations =  5.9

     total cpu time spent up to now is      531.8 secs

     total energy              =   -4240.92494131 Ry
     estimated scf accuracy    <       0.00000815 Ry

     iteration # 10     ecut=    80.00 Ry     beta= 0.70
     Davidson diagonalization with overlap
     c_bands:  1 eigenvalues not converged
     c_bands:  1 eigenvalues not converged
     ethr =  9.70E-09,  avg # of iterations = 11.2

     total cpu time spent up to now is      605.7 secs

     total energy              =   -4240.92496296 Ry
     estimated scf accuracy    <       0.00001999 Ry

     iteration # 11     ecut=    80.00 Ry     beta= 0.70
     Davidson diagonalization with overlap
     ethr =  9.70E-09,  avg # of iterations =  3.4

     total cpu time spent up to now is      647.8 secs

     total energy              =   -4240.92496524 Ry
     estimated scf accuracy    <       0.00000047 Ry

     iteration # 12     ecut=    80.00 Ry     beta= 0.70
     Davidson diagonalization with overlap
     c_bands:  1 eigenvalues not converged
     ethr =  5.59E-10,  avg # of iterations =  8.9

     total cpu time spent up to now is      711.7 secs

     total energy              =   -4240.92496557 Ry
     estimated scf accuracy    <       0.00000079 Ry

     iteration # 13     ecut=    80.00 Ry     beta= 0.70
     Davidson diagonalization with overlap
     c_bands:  1 eigenvalues not converged
     ethr =  5.59E-10,  avg # of iterations =  3.0

     total cpu time spent up to now is      751.0 secs

     total energy              =   -4240.92496564 Ry
     estimated scf accuracy    <       0.00000004 Ry

     iteration # 14     ecut=    80.00 Ry     beta= 0.70
     Davidson diagonalization with overlap
     c_bands:  1 eigenvalues not converged
     ethr =  4.54E-11,  avg # of iterations =  8.7

     total cpu time spent up to now is      812.7 secs

     total energy              =   -4240.92496567 Ry
     estimated scf accuracy    <       0.00000006 Ry

     iteration # 15     ecut=    80.00 Ry     beta= 0.70
     Davidson diagonalization with overlap
     c_bands:  1 eigenvalues not converged
     ethr =  4.54E-11,  avg # of iterations =  2.3

     total cpu time spent up to now is      848.7 secs

     total energy              =   -4240.92496567 Ry
     estimated scf accuracy    <       0.00000001 Ry

     iteration # 16     ecut=    80.00 Ry     beta= 0.70
     Davidson diagonalization with overlap
     ethr =  1.42E-11,  avg # of iterations =  5.9

     total cpu time spent up to now is      895.9 secs

     total energy              =   -4240.92496567 Ry
     estimated scf accuracy    <          1.3E-09 Ry

     iteration # 17     ecut=    80.00 Ry     beta= 0.70
     Davidson diagonalization with overlap
     ethr =  1.59E-12,  avg # of iterations =  4.3

     total cpu time spent up to now is      937.8 secs

     total energy              =   -4240.92496567 Ry
     estimated scf accuracy    <          6.3E-10 Ry

     iteration # 18     ecut=    80.00 Ry     beta= 0.70
     Davidson diagonalization with overlap
     ethr =  7.49E-13,  avg # of iterations =  3.0

     total cpu time spent up to now is      974.9 secs

     total energy              =   -4240.92496567 Ry
     estimated scf accuracy    <          1.9E-10 Ry

     iteration # 19     ecut=    80.00 Ry     beta= 0.70
     Davidson diagonalization with overlap
     ethr =  2.27E-13,  avg # of iterations =  5.9

     total cpu time spent up to now is     1022.9 secs

     End of self-consistent calculation

          k = 0.0000 0.0000 0.0000 ( 36359 PWs)   bands (ev):

   -44.1700 -44.1700 -22.3203 -22.3203 -22.2102 -22.2102 -22.0892 -22.0891
    -7.6243  -7.2155  -6.7645  -6.7601  -6.6789  -5.2209  -5.1911  -4.9427
    -4.8833  -3.8648   0.4893   0.6327   0.8159   1.0233   1.4618   1.6479
     2.3917   2.5370   2.5763   2.9880   3.0239   3.0757   3.2774   3.4690
     3.5010   3.5079   3.8640   4.0282   4.0340   4.2648   4.3079   4.6163
     5.3336   5.5131   5.5150   5.5508   5.8857   6.1008   6.4823   6.7391
     6.9287   7.3236

          k = 0.0000 0.0000 0.1485 ( 36415 PWs)   bands (ev):

   -44.1700 -44.1700 -22.3203 -22.3203 -22.2102 -22.2102 -22.0892 -22.0892
    -7.5866  -7.3195  -6.7835  -6.7692  -6.4778  -5.6706  -4.9703  -4.8971
    -4.7009  -3.9789   0.5180   0.6711   0.8993   1.0636   1.0805   2.0925
     2.1423   2.4112   2.5141   3.0357   3.0850   3.1974   3.2603   3.3419
     3.6413   3.6855   3.8099   3.9880   4.0190   4.2838   4.3188   4.6422
     5.0089   5.0754   5.6619   5.9147   6.0842   6.1230   6.5550   6.7435
     6.7736   7.3095

          k = 0.0000 0.0000-0.2971 ( 36410 PWs)   bands (ev):

   -44.1700 -44.1700 -22.3203 -22.3203 -22.2102 -22.2102 -22.0892 -22.0892
    -7.4776  -7.4776  -6.7795  -6.7795  -6.1086  -6.1086  -4.9308  -4.9308
    -4.2847  -4.2847   0.6754   0.6754   0.8198   0.8198   1.5141   1.5141
     2.4609   2.4609   2.7099   2.7099   3.1202   3.1202   3.2860   3.2860
     3.8020   3.8020   3.8510   3.8510   4.3039   4.3039   4.4393   4.4393
     4.7519   4.7519   5.9474   5.9474   6.2812   6.2812   6.3909   6.3909
     7.2071   7.2071

          k = 0.2541 0.0645 0.0000 ( 36396 PWs)   bands (ev):

   -44.1696 -44.1696 -22.3184 -22.3184 -22.2204 -22.2204 -22.0879 -22.0878
    -7.5105  -7.1219  -6.7198  -6.6628  -6.6249  -5.1961  -5.1674  -4.9030
    -4.8429  -3.9989   0.5773   0.7714   0.9549   1.1396   1.2151   1.5525
     1.9549   2.1767   2.2432   2.5011   2.6002   2.9344   3.5395   3.5906
     3.6249   3.6826   3.6948   3.8582   4.0660   4.0949   4.1763   4.2869
     4.4541   4.7860   5.6185   6.0183   6.3348   6.5378   6.5958   6.8139
     7.0100   7.1521

          k = 0.2541 0.0645 0.1485 ( 36423 PWs)   bands (ev):

   -44.1696 -44.1696 -22.3184 -22.3184 -22.2204 -22.2204 -22.0879 -22.0878
    -7.4738  -7.2171  -6.7279  -6.7220  -6.3961  -5.6148  -4.9465  -4.8588
    -4.7029  -4.0904   0.5942   0.8122   0.9674   1.0079   1.1392   1.6478
     1.8921   2.2494   2.5134   2.5838   2.6085   2.8959   3.2293   3.3127
     3.5886   3.7022   3.7772   3.8604   3.9715   4.0662   4.2108   4.2670
     4.7209   5.1261   5.7489   5.8179   6.2296   6.2871   6.5027   6.6464
     7.2551   7.2855

          k = 0.2541 0.0645-0.2971 ( 36436 PWs)   bands (ev):

   -44.1696 -44.1696 -22.3184 -22.3184 -22.2204 -22.2204 -22.0879 -22.0879
    -7.3681  -7.3681  -6.7316  -6.7316  -6.0340  -6.0340  -4.8980  -4.8980
    -4.3444  -4.3444   0.7134   0.7134   0.9180   0.9180   1.3506   1.3506
     2.2348   2.2348   2.6267   2.6267   2.7833   2.7833   3.0698   3.0698
     3.5581   3.5581   3.8242   3.8242   3.9788   3.9788   4.2609   4.2609
     5.2626   5.2626   5.7337   5.7337   6.0357   6.0357   6.4987   6.4987
     7.4183   7.4183

          k = 0.5081 0.1290 0.0000 ( 36499 PWs)   bands (ev):

   -44.1687 -44.1686 -22.3136 -22.3136 -22.2449 -22.2449 -22.0847 -22.0847
    -7.1941  -6.8980  -6.5915  -6.4435  -6.3858  -5.1712  -5.1452  -4.7982
    -4.7433  -4.4059   0.4547   0.7602   0.8502   1.1461   1.3589   1.4724
     1.6396   1.7624   1.9589   2.1732   2.2045   2.2568   2.6446   3.1367
     3.2843   3.3799   3.4179   3.5356   3.7684   3.8164   4.0197   4.1487
     4.7758   5.2961   5.4366   5.7824   5.8605   6.5098   6.5259   6.7899
     7.3319   7.5345

          k = 0.5081 0.1290 0.1485 ( 36476 PWs)   bands (ev):

   -44.1686 -44.1686 -22.3136 -22.3136 -22.2449 -22.2449 -22.0847 -22.0847
    -7.1617  -6.9560  -6.5938  -6.5541  -6.1570  -5.4841  -4.9435  -4.7723
    -4.7124  -4.4388   0.4855   0.7738   0.9650   1.0992   1.1863   1.4139
     1.4639   1.6883   2.0414   2.0583   2.3417   2.5987   2.9161   3.1808
     3.2689   3.3788   3.4556   3.5583   3.6029   3.8257   3.8517   4.2080
     4.4608   4.6428   5.9502   6.0180   6.2230   6.5263   6.5660   6.6872
     7.1863   7.4761

          k = 0.5081 0.1290-0.2971 ( 36466 PWs)   bands (ev):

   -44.1686 -44.1686 -22.3136 -22.3136 -22.2449 -22.2449 -22.0847 -22.0847
    -7.0715  -7.0715  -6.5912  -6.5912  -5.8333  -5.8333  -4.8428  -4.8428
    -4.5464  -4.5464   0.6223   0.6223   1.1082   1.1082   1.2697   1.2697
     1.3645   1.3645   2.0585   2.0585   2.8193   2.8193   3.0685   3.0685
     3.2820   3.2820   3.5282   3.5282   3.7229   3.7229   3.8876   3.8876
     4.3009   4.3009   6.1707   6.1707   6.5217   6.5217   6.7502   6.7502
     7.0872   7.0872

          k = 0.7622 0.1934 0.0000 ( 36521 PWs)   bands (ev):

   -44.1677 -44.1677 -22.3087 -22.3087 -22.2694 -22.2694 -22.0815 -22.0815
    -6.8166  -6.7106  -6.3244  -6.0814  -5.9801  -5.2797  -5.2463  -5.0355
    -4.6775  -4.6425  -0.0082   0.3577   0.6673   1.1735   1.1841   1.2155
     1.4769   1.5797   1.8942   1.9418   2.2441   2.4893   2.5682   2.6907
     2.7272   3.2439   3.2602   3.3045   3.6384   3.6521   3.7802   3.9224
     4.0529   4.5812   5.7342   6.1121   6.1871   6.5847   6.6638   6.7475
     7.1543   7.6405

          k = 0.7622 0.1934 0.1485 ( 36503 PWs)   bands (ev):

   -44.1677 -44.1677 -22.3087 -22.3087 -22.2694 -22.2694 -22.0815 -22.0815
    -6.8002  -6.7243  -6.3169  -6.1950  -5.8163  -5.3997  -5.1789  -5.0578
    -4.6655  -4.6420   0.0775   0.4517   0.5636   0.9651   1.1706   1.2146
     1.4927   1.6071   1.7466   2.0924   2.1269   2.6325   2.6554   2.8071
     2.8573   3.1876   3.2747   3.3524   3.4366   3.6684   3.7092   3.8582
     4.0332   4.8862   5.2565   6.1810   6.4864   6.5144   6.6557   6.8684
     6.9322   7.4026

          k = 0.7622 0.1934-0.2971 ( 36522 PWs)   bands (ev):

   -44.1677 -44.1677 -22.3087 -22.3087 -22.2694 -22.2694 -22.0815 -22.0815
    -6.7610  -6.7610  -6.2821  -6.2821  -5.5958  -5.5958  -5.1125  -5.1125
    -4.6479  -4.6479   0.2968   0.2968   0.7456   0.7456   1.0568   1.0568
     1.5709   1.5709   1.9471   1.9471   2.3843   2.3843   2.7995   2.7995
     2.9859   2.9859   3.4427   3.4427   3.5524   3.5524   3.7583   3.7583
     4.2526   4.2526   5.9224   5.9224   6.3293   6.3293   6.7384   6.7384
     7.2487   7.2487

          k =-1.0162-0.2579 0.0000 ( 36506 PWs)   bands (ev):

   -44.1673 -44.1673 -22.3065 -22.3065 -22.2797 -22.2797 -22.0802 -22.0802
    -6.6743  -6.6540  -5.7769  -5.7714  -5.5971  -5.5918  -5.5589  -5.5424
    -4.6183  -4.6046   0.1107   0.1392   0.4688   0.4852   1.0108   1.0168
     1.4713   1.6764   2.2071   2.3006   2.3041   2.3086   2.8121   2.8486
     2.8590   3.0013   3.2522   3.2611   3.3222   3.4787   3.5829   3.7014
     3.8597   3.9073   6.2864   6.3228   6.3897   6.4766   6.8922   6.9322
     6.9483   6.9528

          k =-1.0162-0.2579 0.1485 ( 36506 PWs)   bands (ev):

   -44.1673 -44.1673 -22.3065 -22.3065 -22.2797 -22.2797 -22.0802 -22.0802
    -6.6707  -6.6564  -5.7688  -5.7644  -5.6604  -5.6546  -5.4937  -5.4843
    -4.6242  -4.6146   0.0336   0.0436   0.6664   0.6685   1.0443   1.0728
     1.4577   1.5539   1.9233   1.9676   2.3402   2.3488   2.7721   2.7937
     2.9416   2.9675   3.2173   3.2545   3.4966   3.5546   3.6921   3.7406
     4.1491   4.1750   5.8103   5.8137   6.3293   6.3980   6.7762   6.8182
     7.1768   7.1929

          k =-1.0162-0.2579-0.2971 ( 36528 PWs)   bands (ev):

   -44.1673 -44.1673 -22.3065 -22.3065 -22.2797 -22.2797 -22.0802 -22.0802
    -6.6630  -6.6630  -5.7530  -5.7530  -5.6988  -5.6988  -5.4550  -5.4550
    -4.6275  -4.6275  -0.0161  -0.0161   0.8673   0.8673   1.1411   1.1411
     1.4144   1.4144   1.6562   1.6562   2.3447   2.3447   2.8010   2.8010
     2.9226   2.9226   3.2603   3.2603   3.5469   3.5469   3.7594   3.7594
     4.7591   4.7591   5.1317   5.1317   6.3027   6.3027   6.8048   6.8048
     7.2319   7.2319

          k = 0.5081 0.0000 0.0000 ( 36503 PWs)   bands (ev):

   -44.1687 -44.1686 -22.3136 -22.3136 -22.2449 -22.2449 -22.0847 -22.0847
    -7.2008  -6.9017  -6.5829  -6.4379  -6.3874  -5.1723  -5.1412  -4.7951
    -4.7475  -4.4056   0.4522   0.7588   0.8573   1.1112   1.3547   1.4524
     1.6469   1.7648   1.9695   2.1373   2.2164   2.2209   2.6544   3.1170
     3.2854   3.3782   3.4720   3.5688   3.7763   3.8017   4.0517   4.1870
     4.7781   5.3022   5.4462   5.8096   5.8416   6.4704   6.4746   6.8251
     7.3640   7.5427

          k = 0.5081 0.0000 0.1485 ( 36453 PWs)   bands (ev):

   -44.1686 -44.1686 -22.3136 -22.3136 -22.2449 -22.2449 -22.0847 -22.0847
    -7.1683  -6.9612  -6.5848  -6.5478  -6.1580  -5.4852  -4.9364  -4.7737
    -4.7142  -4.4395   0.4825   0.7687   0.9718   1.1013   1.1547   1.3985
     1.4588   1.6879   2.0404   2.0534   2.3348   2.5745   2.9071   3.1678
     3.2616   3.4085   3.4874   3.5883   3.5935   3.8526   3.8598   4.2423
     4.4769   4.6471   5.9555   6.0336   6.2242   6.4748   6.5319   6.7166
     7.2136   7.4784

          k = 0.5081 0.0000-0.2971 ( 36452 PWs)   bands (ev):

   -44.1686 -44.1686 -22.3136 -22.3136 -22.2449 -22.2449 -22.0847 -22.0847
    -7.0779  -7.0779  -6.5828  -6.5828  -5.8349  -5.8349  -4.8384  -4.8384
    -4.5490  -4.5490   0.6173   0.6173   1.1094   1.1094   1.2650   1.2650
     1.3462   1.3462   2.0571   2.0571   2.8095   2.8095   3.0415   3.0415
     3.2752   3.2752   3.5939   3.5939   3.7254   3.7254   3.8909   3.8909
     4.3274   4.3274   6.1855   6.1855   6.4889   6.4889   6.7630   6.7630
     7.0894   7.0894

          k = 0.7622 0.0645 0.0000 ( 36505 PWs)   bands (ev):

   -44.1677 -44.1677 -22.3087 -22.3087 -22.2694 -22.2694 -22.0815 -22.0815
    -6.8263  -6.7093  -6.3146  -6.0801  -5.9835  -5.2801  -5.2402  -5.0353
    -4.6731  -4.6483  -0.0152   0.3698   0.6947   1.1641   1.2194   1.2311
     1.4304   1.5351   1.8688   1.9495   2.1836   2.4771   2.5561   2.6766
     2.6891   3.2914   3.3043   3.3129   3.5849   3.6722   3.8401   3.9509
     4.0706   4.6269   5.7333   6.1228   6.1512   6.5479   6.7029   6.7211
     7.1821   7.6389

          k = 0.7622 0.0645 0.1485 ( 36509 PWs)   bands (ev):

   -44.1677 -44.1677 -22.3087 -22.3087 -22.2694 -22.2694 -22.0815 -22.0815
    -6.8089  -6.7253  -6.3075  -6.1919  -5.8193  -5.4004  -5.1739  -5.0568
    -4.6625  -4.6462   0.0730   0.4602   0.5730   0.9915   1.1911   1.2051
     1.4509   1.6164   1.7498   2.0329   2.0470   2.6257   2.6544   2.7753
     2.8539   3.1858   3.3462   3.3746   3.3989   3.6893   3.7451   3.8758
     4.0837   4.8855   5.2845   6.1686   6.4831   6.4933   6.6729   6.8702
     6.9189   7.4207

          k = 0.7622 0.0645-0.2971 ( 36472 PWs)   bands (ev):

   -44.1677 -44.1677 -22.3087 -22.3087 -22.2694 -22.2694 -22.0815 -22.0815
    -6.7665  -6.7665  -6.2750  -6.2750  -5.5982  -5.5982  -5.1093  -5.1093
    -4.6484  -4.6484   0.2982   0.2982   0.7430   0.7430   1.0838   1.0838
     1.5680   1.5680   1.8891   1.8891   2.3512   2.3512   2.7856   2.7856
     2.9872   2.9872   3.5102   3.5102   3.5539   3.5539   3.7544   3.7544
     4.2774   4.2774   5.9456   5.9456   6.3304   6.3304   6.7032   6.7032
     7.2744   7.2744

          k = 1.0162 0.1290 0.0000 ( 36514 PWs)   bands (ev):

   -44.1673 -44.1673 -22.3065 -22.3065 -22.2797 -22.2797 -22.0802 -22.0802
    -6.6743  -6.6540  -5.7763  -5.7720  -5.5979  -5.5910  -5.5589  -5.5424
    -4.6183  -4.6046   0.1050   0.1449   0.4622   0.4919   1.0058   1.0240
     1.4761   1.6677   2.2122   2.2814   2.3010   2.3124   2.8165   2.8512
     2.8856   2.9943   3.2161   3.2897   3.3299   3.4801   3.5663   3.7059
     3.8704   3.8943   6.2881   6.3230   6.3850   6.4816   6.8986   6.9355
     6.9465   6.9551

          k = 1.0162 0.1290 0.1485 ( 36524 PWs)   bands (ev):

   -44.1673 -44.1673 -22.3065 -22.3065 -22.2797 -22.2797 -22.0802 -22.0802
    -6.6707  -6.6564  -5.7682  -5.7648  -5.6609  -5.6541  -5.4938  -5.4842
    -4.6242  -4.6146   0.0316   0.0452   0.6634   0.6721   1.0488   1.0698
     1.4613   1.5531   1.9172   1.9672   2.3318   2.3446   2.7344   2.8417
     2.9624   2.9766   3.1916   3.2570   3.4977   3.5816   3.6839   3.7121
     4.1559   4.1736   5.7974   5.8285   6.3268   6.4004   6.7829   6.8179
     7.1792   7.1905

          k = 1.0162 0.1290-0.2971 ( 36516 PWs)   bands (ev):

   -44.1673 -44.1673 -22.3065 -22.3065 -22.2797 -22.2797 -22.0802 -22.0802
    -6.6630  -6.6630  -5.7529  -5.7529  -5.6988  -5.6988  -5.4550  -5.4550
    -4.6275  -4.6275  -0.0162  -0.0162   0.8666   0.8666   1.1448   1.1448
     1.4125   1.4125   1.6567   1.6567   2.3342   2.3342   2.7835   2.7835
     2.9683   2.9683   3.2417   3.2417   3.5545   3.5545   3.7498   3.7498
     4.7592   4.7592   5.1334   5.1334   6.3025   6.3025   6.8075   6.8075
     7.2315   7.2315

          k =-0.7622-0.3224 0.0000 ( 36511 PWs)   bands (ev):

   -44.1677 -44.1677 -22.3087 -22.3087 -22.2694 -22.2694 -22.0815 -22.0815
    -6.8010  -6.7139  -6.3384  -6.0834  -5.9752  -5.2792  -5.2550  -5.0357
    -4.6813  -4.6366   0.0019   0.3411   0.6313   1.1598   1.1862   1.1954
     1.4977   1.6530   1.9329   1.9409   2.3355   2.5061   2.5882   2.7147
     2.7681   3.1483   3.2216   3.3384   3.6074   3.6505   3.7382   3.8806
     4.0257   4.5091   5.7362   6.1143   6.2270   6.5827   6.6407   6.8152
     7.1105   7.6450

          k =-0.7622-0.3224 0.1485 ( 36492 PWs)   bands (ev):

   -44.1677 -44.1677 -22.3087 -22.3087 -22.2694 -22.2694 -22.0815 -22.0815
    -6.7864  -6.7240  -6.3303  -6.1997  -5.8119  -5.3987  -5.1859  -5.0593
    -4.6679  -4.6378   0.0834   0.4414   0.5484   0.9374   1.1498   1.2226
     1.5525   1.5963   1.7317   2.1864   2.2413   2.6408   2.6634   2.8366
     2.8650   3.1723   3.2135   3.3333   3.4696   3.6201   3.6738   3.8260
     3.9504   4.8863   5.2187   6.2016   6.4720   6.5357   6.6525   6.8845
     6.9466   7.3724

          k =-0.7622-0.3224-0.2971 ( 36508 PWs)   bands (ev):

   -44.1677 -44.1677 -22.3087 -22.3087 -22.2694 -22.2694 -22.0815 -22.0815
    -6.7529  -6.7529  -6.2925  -6.2925  -5.5924  -5.5924  -5.1171  -5.1171
    -4.6471  -4.6471   0.2943   0.2943   0.7493   0.7493   1.0264   1.0264
     1.5726   1.5726   2.0187   2.0187   2.4441   2.4441   2.8241   2.8241
     2.9825   2.9825   3.3498   3.3498   3.5562   3.5562   3.7437   3.7437
     4.2181   4.2181   5.8913   5.8913   6.3260   6.3260   6.7988   6.7988
     7.2050   7.2050

          k =-0.5081-0.2579 0.0000 ( 36480 PWs)   bands (ev):

   -44.1686 -44.1686 -22.3136 -22.3136 -22.2449 -22.2449 -22.0847 -22.0847
    -7.1768  -6.8895  -6.6116  -6.4583  -6.3820  -5.1686  -5.1552  -4.8029
    -4.7358  -4.4069   0.4621   0.7574   0.8338   1.2450   1.3677   1.5255
     1.6283   1.7562   1.9409   2.2183   2.2361   2.3004   2.6249   3.1905
     3.2866   3.2943   3.3900   3.4301   3.7388   3.8257   3.9739   4.0705
     4.7677   5.2840   5.4019   5.7251   5.9087   6.6065   6.6458   6.7056
     7.2536   7.5206

          k =-0.5081-0.2579 0.1485 ( 36485 PWs)   bands (ev):

   -44.1686 -44.1686 -22.3136 -22.3136 -22.2449 -22.2449 -22.0847 -22.0847
    -7.1446  -6.9429  -6.6150  -6.5712  -6.1544  -5.4814  -4.9595  -4.7707
    -4.7077  -4.4371   0.4935   0.7810   0.9499   1.0947   1.2744   1.4310
     1.5033   1.6834   2.0482   2.0701   2.3548   2.6556   2.9353   3.2153
     3.2700   3.2866   3.4305   3.4543   3.6123   3.7897   3.8306   4.1339
     4.4140   4.6329   5.9209   5.9976   6.2205   6.6148   6.6439   6.6587
     7.1188   7.4742

          k =-0.5081-0.2579-0.2971 ( 36478 PWs)   bands (ev):

   -44.1686 -44.1686 -22.3136 -22.3136 -22.2449 -22.2449 -22.0847 -22.0847
    -7.0551  -7.0551  -6.6125  -6.6125  -5.8296  -5.8296  -4.8531  -4.8531
    -4.5405  -4.5405   0.6338   0.6338   1.1040   1.1040   1.2721   1.2721
     1.4260   1.4260   2.0617   2.0617   2.8438   2.8438   3.1403   3.1403
     3.2976   3.2976   3.3735   3.3735   3.7076   3.7076   3.8794   3.8794
     4.2341   4.2341   6.1324   6.1324   6.5913   6.5913   6.7292   6.7292
     7.0852   7.0852

          k =-0.2541-0.1934 0.0000 ( 36410 PWs)   bands (ev):

   -44.1696 -44.1696 -22.3184 -22.3184 -22.2204 -22.2204 -22.0879 -22.0878
    -7.4982  -7.1092  -6.7374  -6.6601  -6.6428  -5.1939  -5.1750  -4.9096
    -4.8349  -4.0000   0.6116   0.8478   0.9650   1.1613   1.2462   1.5542
     1.9743   2.1837   2.2610   2.4632   2.5742   3.0061   3.4037   3.4807
     3.5552   3.6843   3.7479   3.8662   4.0406   4.0666   4.1496   4.2547
     4.3961   4.7511   5.6640   6.0297   6.3642   6.5529   6.6004   6.8391
     7.0089   7.0801

          k =-0.2541-0.1934 0.1485 ( 36427 PWs)   bands (ev):

   -44.1696 -44.1696 -22.3184 -22.3184 -22.2204 -22.2204 -22.0879 -22.0878
    -7.4614  -7.2040  -6.7483  -6.7340  -6.3968  -5.6127  -4.9638  -4.8553
    -4.6964  -4.0901   0.6217   0.8760   0.9997   1.0499   1.1474   1.6648
     1.8916   2.2531   2.4827   2.5635   2.6315   2.9145   3.2245   3.3228
     3.4547   3.6083   3.7707   3.8714   3.9597   4.0524   4.1507   4.2182
     4.6975   5.1026   5.7571   5.8063   6.1941   6.3155   6.5884   6.6714
     7.2388   7.2505

          k =-0.2541-0.1934-0.2971 ( 36422 PWs)   bands (ev):

   -44.1696 -44.1696 -22.3184 -22.3184 -22.2204 -22.2204 -22.0879 -22.0879
    -7.3554  -7.3554  -6.7490  -6.7490  -6.0319  -6.0319  -4.9049  -4.9049
    -4.3411  -4.3411   0.7329   0.7329   0.9842   0.9842   1.3603   1.3603
     2.2331   2.2331   2.5881   2.5881   2.8027   2.8027   3.1007   3.1007
     3.4559   3.4559   3.8004   3.8004   3.9740   3.9740   4.2038   4.2038
     5.2468   5.2468   5.6994   5.6994   6.0209   6.0209   6.5875   6.5875
     7.4000   7.4006

          k = 0.0000-0.1290 0.0000 ( 36417 PWs)   bands (ev):

   -44.1700 -44.1700 -22.3203 -22.3203 -22.2102 -22.2102 -22.0892 -22.0891
    -7.6178  -7.2080  -6.7745  -6.7586  -6.6891  -5.2198  -5.1950  -4.9476
    -4.8779  -3.8654   0.5183   0.6756   0.8220   1.0247   1.4851   1.6578
     2.3959   2.5440   2.5737   2.9956   3.0638   3.0694   3.2748   3.3971
     3.4374   3.4907   3.8183   4.0225   4.0282   4.2114   4.2596   4.6185
     5.3273   5.5006   5.5220   5.5390   5.8968   6.1398   6.5338   6.7054
     6.9299   7.4545

          k = 0.0000-0.1290 0.1485 ( 36419 PWs)   bands (ev):

   -44.1700 -44.1700 -22.3203 -22.3203 -22.2102 -22.2102 -22.0892 -22.0892
    -7.5800  -7.3123  -6.7931  -6.7768  -6.4792  -5.6694  -4.9805  -4.8944
    -4.6974  -3.9788   0.5426   0.7137   0.9143   1.0683   1.0919   2.1013
     2.1570   2.4157   2.5206   3.0611   3.0788   3.1924   3.2122   3.2904
     3.6339   3.6859   3.7571   3.9777   3.9867   4.2377   4.2746   4.6444
     5.0087   5.0598   5.6674   5.9163   6.0928   6.1257   6.5451   6.7746
     6.7901   7.4304

          k = 0.0000-0.1290-0.2971 ( 36464 PWs)   bands (ev):

   -44.1700 -44.1700 -22.3203 -22.3203 -22.2102 -22.2102 -22.0892 -22.0892
    -7.4709  -7.4709  -6.7889  -6.7889  -6.1077  -6.1077  -4.9345  -4.9345
    -4.2831  -4.2831   0.7115   0.7115   0.8289   0.8289   1.5244   1.5244
     2.4663   2.4663   2.7205   2.7205   3.1142   3.1142   3.2386   3.2386
     3.7839   3.7839   3.8466   3.8466   4.2245   4.2245   4.4494   4.4494
     4.7536   4.7536   5.9278   5.9278   6.3025   6.3025   6.3919   6.3919
     7.2165   7.2165

          k = 1.0162 0.0000 0.0000 ( 36499 PWs)   bands (ev):

   -44.1673 -44.1673 -22.3065 -22.3065 -22.2797 -22.2797 -22.0802 -22.0802
    -6.6743  -6.6540  -5.7756  -5.7727  -5.5986  -5.5904  -5.5589  -5.5424
    -4.6183  -4.6046   0.1007   0.1493   0.4578   0.4965   1.0036   1.0283
     1.4815   1.6584   2.2206   2.2603   2.2995   2.3147   2.8249   2.8395
     2.9301   2.9801   3.1992   3.2967   3.3402   3.4763   3.5536   3.7131
     3.8794   3.8801   6.2897   6.3231   6.3807   6.4863   6.9058   6.9388
     6.9439   6.9575

          k = 1.0162 0.0000 0.1485 ( 36485 PWs)   bands (ev):

   -44.1673 -44.1673 -22.3065 -22.3065 -22.2797 -22.2797 -22.0802 -22.0802
    -6.6707  -6.6564  -5.7675  -5.7656  -5.6614  -5.6536  -5.4940  -5.4841
    -4.6242  -4.6146   0.0300   0.0463   0.6620   0.6742   1.0564   1.0637
     1.4653   1.5521   1.9108   1.9669   2.3249   2.3396   2.7200   2.8585
     2.9720   3.0159   3.1557   3.2579   3.4998   3.6375   3.6540   3.6757
     4.1647   4.1700   5.7920   5.8358   6.3245   6.4027   6.7903   6.8168
     7.1841   7.1856

          k = 1.0162 0.0000-0.2971 ( 36514 PWs)   bands (ev):

   -44.1673 -44.1673 -22.3065 -22.3065 -22.2797 -22.2797 -22.0802 -22.0802
    -6.6630  -6.6630  -5.7529  -5.7529  -5.6988  -5.6988  -5.4550  -5.4550
    -4.6275  -4.6275  -0.0164  -0.0164   0.8660   0.8660   1.1486   1.1486
     1.4106   1.4106   1.6572   1.6572   2.3241   2.3241   2.7719   2.7719
     3.0130   3.0130   3.2181   3.2181   3.5625   3.5625   3.7395   3.7395
     4.7594   4.7594   5.1351   5.1351   6.3023   6.3023   6.8103   6.8103
     7.2312   7.2312

          k = 1.2703 0.0645 0.0000 ( 36468 PWs)   bands (ev):

   -44.1677 -44.1677 -22.3087 -22.3087 -22.2694 -22.2694 -22.0815 -22.0815
    -6.7877  -6.7182  -6.3484  -6.0850  -5.9717  -5.2788  -5.2613  -5.0359
    -4.6831  -4.6333   0.0092   0.3298   0.6072   1.1574   1.1758   1.1948
     1.4994   1.7065   1.9280   1.9785   2.3950   2.5345   2.6039   2.7323
     2.7899   3.0571   3.2204   3.4189   3.5364   3.5594   3.7868   3.8494
     4.0062   4.4505   5.7379   6.1221   6.2530   6.5258   6.6839   6.8694
     7.0729   7.5477

          k = 1.2703 0.0645 0.1485 ( 36490 PWs)   bands (ev):

   -44.1677 -44.1677 -22.3087 -22.3087 -22.2694 -22.2694 -22.0815 -22.0815
    -6.7749  -6.7251  -6.3400  -6.2031  -5.8088  -5.3981  -5.1908  -5.0603
    -4.6690  -4.6354   0.0873   0.4354   0.5362   0.9224   1.1379   1.2272
     1.5816   1.6208   1.6993   2.2630   2.3197   2.6481   2.6802   2.8523
     2.8688   3.0816   3.2633   3.3381   3.4335   3.5868   3.6977   3.7803
     3.8773   4.8855   5.1934   6.2202   6.4404   6.5521   6.6648   6.9069
     6.9558   7.3473

          k = 1.2703 0.0645-0.2971 ( 36480 PWs)   bands (ev):

   -44.1677 -44.1677 -22.3087 -22.3087 -22.2694 -22.2694 -22.0815 -22.0815
    -6.7470  -6.7470  -6.3001  -6.3001  -5.5899  -5.5899  -5.1203  -5.1203
    -4.6466  -4.6466   0.2922   0.2922   0.7518   0.7518   1.0092   1.0092
     1.5738   1.5738   2.0600   2.0600   2.4954   2.4954   2.8671   2.8671
     2.9650   2.9650   3.2717   3.2717   3.5723   3.5723   3.7178   3.7178
     4.1942   4.1942   5.8704   5.8704   6.3230   6.3230   6.8527   6.8527
     7.1652   7.1652

          k =-0.5081-0.3869 0.0000 ( 36463 PWs)   bands (ev):

   -44.1686 -44.1686 -22.3136 -22.3136 -22.2449 -22.2449 -22.0847 -22.0847
    -7.1579  -6.8823  -6.6303  -6.4749  -6.3780  -5.1661  -5.1652  -4.8054
    -4.7305  -4.4078   0.4715   0.7465   0.8186   1.3750   1.3840   1.5715
     1.6134   1.7675   1.9135   2.2470   2.2676   2.3276   2.6214   3.1660
     3.2508   3.3002   3.3020   3.4283   3.7048   3.7393   3.9556   4.0524
     4.7577   5.2746   5.3452   5.6831   5.9623   6.6206   6.7163   6.7589
     7.1650   7.5131

          k =-0.5081-0.3869 0.1485 ( 36477 PWs)   bands (ev):

   -44.1686 -44.1686 -22.3136 -22.3136 -22.2449 -22.2449 -22.0847 -22.0847
    -7.1257  -6.9294  -6.6350  -6.5918  -6.1518  -5.4789  -4.9743  -4.7706
    -4.7026  -4.4354   0.5026   0.7813   0.9364   1.0900   1.3970   1.4332
     1.5554   1.6680   2.0599   2.0868   2.3579   2.7068   2.9501   3.1418
     3.2608   3.2929   3.3317   3.4587   3.6148   3.7357   3.8045   4.0960
     4.3487   4.6241   5.8711   5.9989   6.2192   6.5506   6.7468   6.7714
     7.0391   7.4837

          k =-0.5081-0.3869-0.2971 ( 36492 PWs)   bands (ev):

   -44.1686 -44.1686 -22.3136 -22.3136 -22.2449 -22.2449 -22.0847 -22.0847
    -7.0370  -7.0370  -6.6353  -6.6353  -5.8258  -5.8258  -4.8631  -4.8631
    -4.5349  -4.5349   0.6444   0.6444   1.0981   1.0981   1.2689   1.2689
     1.5080   1.5080   2.0630   2.0630   2.8668   2.8668   3.2079   3.2079
     3.2332   3.2332   3.3225   3.3225   3.6691   3.6691   3.8736   3.8736
     4.1639   4.1639   6.0939   6.0939   6.6174   6.6174   6.7477   6.7477
     7.0899   7.0899

          k =-0.2541-0.3224 0.0000 ( 36485 PWs)   bands (ev):

   -44.1696 -44.1696 -22.3184 -22.3184 -22.2204 -22.2204 -22.0879 -22.0878
    -7.4797  -7.0903  -6.7600  -6.6722  -6.6562  -5.1909  -5.1862  -4.9144
    -4.8277  -4.0015   0.6394   0.9786   0.9800   1.2102   1.3190   1.5538
     2.0056   2.1877   2.2913   2.3761   2.5104   3.1291   3.2294   3.2944
     3.5010   3.7055   3.7702   3.8569   4.0199   4.0232   4.0881   4.2158
     4.3865   4.6804   5.7371   6.0405   6.3868   6.4895   6.6826   6.8761
     6.9731   7.0151

          k =-0.2541-0.3224 0.1485 ( 36445 PWs)   bands (ev):

   -44.1696 -44.1696 -22.3184 -22.3184 -22.2204 -22.2204 -22.0879 -22.0878
    -7.4427  -7.1841  -6.7741  -6.7570  -6.3975  -5.6096  -4.9849  -4.8532
    -4.6878  -4.0896   0.6410   0.9370   1.0996   1.1100   1.2003   1.6896
     1.8956   2.2486   2.3979   2.5207   2.6612   2.9316   3.2150   3.2789
     3.3168   3.4956   3.8072   3.8725   3.9448   4.0288   4.0770   4.1400
     4.6883   5.0626   5.7662   5.8012   6.1773   6.2850   6.6922   6.7224
     7.1798   7.2446

          k =-0.2541-0.3224-0.2971 ( 36442 PWs)   bands (ev):

   -44.1696 -44.1696 -22.3184 -22.3184 -22.2204 -22.2204 -22.0879 -22.0879
    -7.3361  -7.3361  -6.7749  -6.7749  -6.0288  -6.0288  -4.9146  -4.9146
    -4.3365  -4.3365   0.7418   0.7418   1.1203   1.1203   1.3753   1.3753
     2.2250   2.2250   2.5118   2.5118   2.8237   2.8237   3.1564   3.1564
     3.2819   3.2819   3.7988   3.7988   3.9783   3.9783   4.1207   4.1207
     5.2283   5.2283   5.6650   5.6650   5.9882   5.9882   6.6938   6.6938
     7.3703   7.3703

          k = 0.0000-0.2579 0.0000 ( 36445 PWs)   bands (ev):

   -44.1700 -44.1700 -22.3203 -22.3203 -22.2102 -22.2102 -22.0892 -22.0891
    -7.6015  -7.1891  -6.7974  -6.7551  -6.7166  -5.2171  -5.2048  -4.9549
    -4.8693  -3.8670   0.5710   0.7948   0.8373   1.0598   1.5382   1.6806
     2.4063   2.5592   2.5615   3.0342   3.0535   3.1627   3.1652   3.2348
     3.2686   3.4652   3.7905   4.0097   4.0279   4.0683   4.1382   4.6240
     5.3123   5.4256   5.5390   5.6058   5.9242   6.1944   6.6153   6.6334
     6.9325   7.2608

          k = 0.0000-0.2579 0.1485 ( 36452 PWs)   bands (ev):

   -44.1700 -44.1700 -22.3203 -22.3203 -22.2102 -22.2102 -22.0892 -22.0892
    -7.5635  -7.2941  -6.8168  -6.7965  -6.4820  -5.6667  -5.0019  -4.8910
    -4.6893  -3.9786   0.5809   0.8248   0.9843   1.0926   1.1149   2.1248
     2.1886   2.4270   2.5368   3.0420   3.0632   3.0986   3.1474   3.1799
     3.6164   3.6620   3.7030   3.9361   3.9834   4.1198   4.1681   4.6499
     5.0081   5.0349   5.6891   5.9205   6.1049   6.1204   6.5162   6.7771
     6.8789   7.2507

          k = 0.0000-0.2579-0.2971 ( 36454 PWs)   bands (ev):

   -44.1700 -44.1700 -22.3203 -22.3203 -22.2102 -22.2102 -22.0892 -22.0892
    -7.4538  -7.4538  -6.8123  -6.8123  -6.1055  -6.1055  -4.9433  -4.9433
    -4.2791  -4.2791   0.7489   0.7489   0.9155   0.9155   1.5501   1.5501
     2.4798   2.4798   2.7340   2.7340   3.0845   3.0845   3.0994   3.0994
     3.7711   3.7711   3.8361   3.8361   4.0888   4.0888   4.4434   4.4434
     4.7577   4.7577   5.8871   5.8871   6.3346   6.3346   6.3947   6.3947
     7.2123   7.2124

          k = 1.5243 0.0000 0.0000 ( 36439 PWs)   bands (ev):

   -44.1686 -44.1686 -22.3136 -22.3136 -22.2449 -22.2449 -22.0847 -22.0847
    -7.1494  -6.8800  -6.6374  -6.4824  -6.3764  -5.1694  -5.1651  -4.8059
    -4.7288  -4.4082   0.4761   0.7398   0.8126   1.3777   1.4967   1.5394
     1.6072   1.7869   1.8952   2.2633   2.2678   2.3339   2.6300   3.1088
     3.2431   3.2716   3.3108   3.4909   3.6398   3.6928   3.9512   4.0649
     4.7532   5.2713   5.3143   5.6706   5.9866   6.5846   6.7824   6.7925
     7.1202   7.5116

          k = 1.5243 0.0000 0.1485 ( 36476 PWs)   bands (ev):

   -44.1686 -44.1686 -22.3136 -22.3136 -22.2449 -22.2449 -22.0847 -22.0847
    -7.1172  -6.9238  -6.6425  -6.6017  -6.1506  -5.4778  -4.9801  -4.7709
    -4.7005  -4.4347   0.5067   0.7795   0.9313   1.0882   1.4310   1.5116
     1.5174   1.6681   2.0654   2.0984   2.3534   2.7222   2.9606   3.0853
     3.2452   3.2975   3.3090   3.5374   3.5605   3.6975   3.7930   4.1018
     4.3106   4.6209   5.8479   6.0027   6.2190   6.5237   6.7942   6.8279
     6.9919   7.4960

          k = 1.5243 0.0000-0.2971 ( 36508 PWs)   bands (ev):

   -44.1686 -44.1686 -22.3136 -22.3136 -22.2449 -22.2449 -22.0847 -22.0847
    -7.0289  -7.0289  -6.6454  -6.6454  -5.8242  -5.8242  -4.8672  -4.8672
    -4.5327  -4.5327   0.6486   0.6486   1.0952   1.0952   1.2669   1.2669
     1.5486   1.5486   2.0620   2.0620   2.8743   2.8743   3.1465   3.1465
     3.2744   3.2744   3.3359   3.3359   3.6388   3.6388   3.8725   3.8725
     4.1342   4.1342   6.0782   6.0782   6.6130   6.6130   6.7683   6.7683
     7.0950   7.0950

          k =-0.2541-0.4514 0.0000 ( 36444 PWs)   bands (ev):

   -44.1696 -44.1696 -22.3184 -22.3184 -22.2204 -22.2204 -22.0879 -22.0878
    -7.4656  -7.0765  -6.7727  -6.6977  -6.6534  -5.1944  -5.1888  -4.9158
    -4.8244  -4.0025   0.6463   0.9914   1.0851   1.2592   1.4100   1.5516
     2.0439   2.1751   2.2768   2.3165   2.4249   3.1107   3.1772   3.2424
     3.4954   3.7127   3.7373   3.8354   3.9631   4.0234   4.0609   4.1900
     4.4348   4.6005   5.7975   6.0460   6.3975   6.4389   6.7295   6.9063
     6.9107   7.0084

          k =-0.2541-0.4514 0.1485 ( 36461 PWs)   bands (ev):

   -44.1696 -44.1696 -22.3184 -22.3184 -22.2204 -22.2204 -22.0879 -22.0878
    -7.4284  -7.1689  -6.7896  -6.7782  -6.3977  -5.6074  -4.9984  -4.8529
    -4.6821  -4.0893   0.6441   0.9580   1.1201   1.2405   1.2865   1.7093
     1.9076   2.2232   2.2955   2.4634   2.6836   2.9265   3.1624   3.1776
     3.3495   3.4857   3.8203   3.8351   3.9413   3.9965   4.0492   4.0885
     4.6957   5.0288   5.7690   5.8071   6.1863   6.2281   6.7496   6.7656
     7.1434   7.2412

          k =-0.2541-0.4514-0.2971 ( 36490 PWs)   bands (ev):

   -44.1696 -44.1696 -22.3184 -22.3184 -22.2204 -22.2204 -22.0879 -22.0879
    -7.3214  -7.3214  -6.7943  -6.7943  -6.0265  -6.0265  -4.9214  -4.9214
    -4.3333  -4.3333   0.7415   0.7415   1.2475   1.2475   1.3927   1.3927
     2.2003   2.2003   2.4358   2.4358   2.8359   2.8359   3.1491   3.1491
     3.2277   3.2277   3.7858   3.7858   3.9911   3.9911   4.0628   4.0628
     5.2175   5.2175   5.6468   5.6468   5.9597   5.9597   6.7581   6.7581
     7.3482   7.3482

          k = 0.0000-0.3869 0.0000 ( 36477 PWs)   bands (ev):

   -44.1700 -44.1700 -22.3203 -22.3203 -22.2102 -22.2102 -22.0892 -22.0891
    -7.5840  -7.1689  -6.8166  -6.7516  -6.7500  -5.2152  -5.2145  -4.9582
    -4.8640  -3.8687   0.5945   0.8532   0.9578   1.1286   1.6033   1.7017
     2.4172   2.5173   2.5802   2.8727   3.0285   3.0366   3.0933   3.2625
     3.2972   3.4392   3.8264   3.8863   3.9949   4.0047   4.0275   4.6297
     5.2976   5.3832   5.5560   5.6830   5.9531   6.2241   6.5105   6.7072
     6.9349   7.2959

          k = 0.0000-0.3869 0.1485 ( 36452 PWs)   bands (ev):

   -44.1700 -44.1700 -22.3203 -22.3203 -22.2102 -22.2102 -22.0892 -22.0892
    -7.5459  -7.2743  -6.8405  -6.8195  -6.4843  -5.6639  -5.0205  -4.8899
    -4.6818  -3.9784   0.5912   0.9481   1.0856   1.1056   1.1957   2.1541
     2.2066   2.4387   2.5542   2.8195   2.8517   3.0467   3.1667   3.2491
     3.5989   3.6376   3.7017   3.9120   3.9799   4.0031   4.0647   4.6556
     5.0073   5.0220   5.7201   5.9254   6.0835   6.1243   6.4839   6.7796
     6.9429   7.2074

          k = 0.0000-0.3869-0.2971 ( 36454 PWs)   bands (ev):

   -44.1700 -44.1700 -22.3203 -22.3203 -22.2102 -22.2102 -22.0892 -22.0892
    -7.4355  -7.4355  -6.8371  -6.8371  -6.1031  -6.1031  -4.9521  -4.9521
    -4.2752  -4.2752   0.7457   0.7457   1.0743   1.0743   1.5787   1.5787
     2.4941   2.4941   2.6592   2.6592   2.9625   2.9625   3.0839   3.0839
     3.7733   3.7733   3.8256   3.8256   3.9898   3.9898   4.4318   4.4318
     4.7619   4.7619   5.8474   5.8474   6.3519   6.3519   6.3977   6.3977
     7.1860   7.1860

          k =-2.0325 0.0000 0.0000 ( 36452 PWs)   bands (ev):

   -44.1700 -44.1700 -22.3203 -22.3203 -22.2102 -22.2102 -22.0892 -22.0891
    -7.5764  -7.1601  -6.8221  -6.7671  -6.7501  -5.2197  -5.2134  -4.9588
    -4.8625  -3.8693   0.5969   0.8599   1.0605   1.1443   1.6452   1.7100
     2.4218   2.4835   2.5884   2.7275   2.9530   3.0293   3.1255   3.2600
     3.3846   3.4283   3.7791   3.8600   3.9432   3.9777   4.0273   4.6321
     5.2917   5.3712   5.5631   5.7199   5.9657   6.2326   6.4609   6.7323
     6.9358   7.2044

          k =-2.0325 0.0000 0.1485 ( 36456 PWs)   bands (ev):

   -44.1700 -44.1700 -22.3203 -22.3203 -22.2102 -22.2102 -22.0892 -22.0892
    -7.5382  -7.2656  -6.8498  -6.8305  -6.4850  -5.6628  -5.0277  -4.8898
    -4.6788  -3.9783   0.5900   0.9956   1.0971   1.1501   1.2594   2.1657
     2.2095   2.4437   2.5617   2.6813   2.7613   3.0396   3.1610   3.3152
     3.5917   3.6155   3.7107   3.8800   3.9639   3.9784   4.0317   4.6580
     5.0069   5.0193   5.7367   5.9276   6.0630   6.1296   6.4705   6.7806
     6.9638   7.1907

          k =-2.0325 0.0000-0.2971 ( 36460 PWs)   bands (ev):

   -44.1700 -44.1700 -22.3203 -22.3203 -22.2102 -22.2102 -22.0892 -22.0892
    -7.4274  -7.4274  -6.8478  -6.8478  -6.1021  -6.1021  -4.9557  -4.9557
    -4.2736  -4.2736   0.7415   0.7415   1.1578   1.1578   1.5927   1.5927
     2.5002   2.5002   2.5696   2.5696   2.9539   2.9539   3.0773   3.0773
     3.7651   3.7651   3.8213   3.8213   3.9627   3.9627   4.4275   4.4275
     4.7636   4.7636   5.8300   5.8300   6.3566   6.3566   6.3991   6.3991
     7.1724   7.1724

     the Fermi energy is     5.2590 ev

!    total energy              =   -4240.92496567 Ry

     total all-electron energy =   -150287.618660 Ry
     estimated scf accuracy    <          4.5E-12 Ry
     smearing contrib. (-TS)   =      -0.00004260 Ry
     internal energy E=F+TS    =   -4240.92492307 Ry

     The total energy is F=E-TS. E is the sum of the following terms:
     one-electron contribution =    -164.08278160 Ry
     hartree contribution      =     115.49324083 Ry
     xc contribution           =    -201.39438273 Ry
     ewald contribution        =    -223.43327081 Ry
     one-center paw contrib.   =   -3767.50772877 Ry

     convergence has been achieved in  19 iterations

     Forces acting on atoms (cartesian axes, Ry/au):

     atom    1 type  1   force =     0.00000000   -0.02889546    0.00000000
     atom    2 type  1   force =     0.00000000    0.02889546    0.00000000
     atom    3 type  2   force =     0.00000000    0.00217271    0.00000000
     atom    4 type  2   force =     0.00000000   -0.00217271    0.00000000
     atom    5 type  2   force =     0.00000000    0.00637719   -0.00110479
     atom    6 type  2   force =    -0.00000000   -0.00637719    0.00110479
     atom    7 type  2   force =     0.00000000    0.00637719    0.00110479
     atom    8 type  2   force =     0.00000000   -0.00637719   -0.00110479
     atom    9 type  2   force =     0.00000000    0.01967273    0.01144214
     atom   10 type  2   force =     0.00000000   -0.01967273   -0.01144214
     atom   11 type  2   force =     0.00000000    0.01967273   -0.01144214
     atom   12 type  2   force =     0.00000000   -0.01967273    0.01144214

     Total force =     0.062599     Total SCF correction =     0.000003


     Computing stress (Cartesian axis) and pressure

          total   stress  (Ry/bohr**3)                   (kbar)     P=       -5.18
  -0.00002077   0.00000000   0.00000000           -3.05        0.00        0.00
  -0.00000000  -0.00003310   0.00000000           -0.00       -4.87        0.00
   0.00000000   0.00000000  -0.00005182            0.00        0.00       -7.62

 
     init_run     :     18.87s CPU     19.34s WALL (       1 calls)
     electrons    :    991.98s CPU   1003.33s WALL (       1 calls)
     forces       :      6.31s CPU      6.52s WALL (       1 calls)
     stress       :     41.39s CPU     41.95s WALL (       1 calls)

     Called by init_run:
     wfcinit      :     14.51s CPU     14.68s WALL (       1 calls)
     potinit      :      1.32s CPU      1.38s WALL (       1 calls)
     hinit0       :      1.75s CPU      1.80s WALL (       1 calls)

     Called by electrons:
     c_bands      :    827.24s CPU    830.79s WALL (      20 calls)
     sum_band     :    137.98s CPU    142.15s WALL (      20 calls)
     v_of_rho     :      5.79s CPU      6.08s WALL (      20 calls)
     newd         :     14.68s CPU     18.17s WALL (      20 calls)
     PAW_pot      :      6.27s CPU      6.28s WALL (      20 calls)
     mix_rho      :      0.88s CPU      0.90s WALL (      20 calls)

     Called by c_bands:
     init_us_2    :     11.96s CPU     12.01s WALL (    2709 calls)
     cegterg      :    745.69s CPU    748.87s WALL (    1260 calls)

     Called by *egterg:
     cdiaghg      :     28.90s CPU     28.96s WALL (    8761 calls)
     h_psi        :    569.94s CPU    572.91s WALL (    8887 calls)
     s_psi        :     46.97s CPU     47.06s WALL (    8887 calls)
     g_psi        :      2.06s CPU      2.07s WALL (    7564 calls)

     Called by h_psi:
     h_psi:calbec :     40.98s CPU     41.06s WALL (    8887 calls)
     vloc_psi     :    478.89s CPU    481.59s WALL (    8887 calls)
     add_vuspsi   :     46.83s CPU     46.93s WALL (    8887 calls)

     General routines
     calbec       :     54.02s CPU     54.13s WALL (   10462 calls)
     fft          :      3.52s CPU      3.63s WALL (     284 calls)
     ffts         :      0.09s CPU      0.09s WALL (      40 calls)
     fftw         :    446.15s CPU    448.66s WALL (  454672 calls)
     interpolate  :      0.32s CPU      0.32s WALL (      20 calls)
 
     Parallel routines
 
     PWSCF        :  17m38.84s CPU  17m51.51s WALL

 
   This run was terminated on:  15:47:29  19Nov2021            

=------------------------------------------------------------------------------=
   JOB DONE.
=------------------------------------------------------------------------------=
