
     Program PWSCF v.6.8 starts on 19Nov2021 at 15:17:45 

     This program is part of the open-source Quantum ESPRESSO suite
     for quantum simulation of materials; please cite
         "P. Giannozzi et al., J. Phys.:Condens. Matter 21 395502 (2009);
         "P. Giannozzi et al., J. Phys.:Condens. Matter 29 465901 (2017);
         "P. Giannozzi et al., J. Chem. Phys. 152 154105 (2020);
          URL http://www.quantum-espresso.org", 
     in publications or presentations arising from this work. More details at
     http://www.quantum-espresso.org/quote

     Parallel version (MPI), running on    10 processors

     MPI processes distributed on     1 nodes
     R & G space division:  proc/nbgrp/npool/nimage =      10
     71764 MiB available memory on the printing compute node when the environment starts
 
     Waiting for input...
     Reading input from standard input

     Current dimensions of program PWSCF are:
     Max number of different atomic species (ntypx) = 10
     Max number of k-points (npk) =  40000
     Max angular momentum in pseudopotentials (lmaxx) =  4
     file Zr.pbe-spn-kjpaw_psl.1.0.0.UPF: wavefunction(s)  4S 4P renormalized
     file Te.pbe-n-kjpaw_psl.1.0.0.UPF: wavefunction(s)  5S 5P renormalized
     Message from routine setup:
     using ibrav=0 with symmetry is DISCOURAGED, use correct ibrav instead

     Subspace diagonalization in iterative solution of the eigenvalue problem:
     a serial algorithm will be used

 
     Parallelization info
     --------------------
     sticks:   dense  smooth     PW     G-vecs:    dense   smooth      PW
     Min         734     293     87               115340    29174    4753
     Max         735     295     88               115345    29176    4760
     Sum        7345    2937    873              1153415   291749   47557
 
     Using Slab Decomposition
 


     bravais-lattice index     =            0
     lattice parameter (alat)  =      15.5510  a.u.
     unit-cell volume          =    3018.5011 (a.u.)^3
     number of atoms/cell      =           12
     number of atomic types    =            2
     number of electrons       =        84.00
     number of Kohn-Sham states=           50
     kinetic-energy cutoff     =      80.0000  Ry
     charge density cutoff     =     800.0000  Ry
     scf convergence threshold =      1.0E-10
     mixing beta               =       0.7000
     number of iterations used =            8  plain     mixing
     Exchange-correlation= SLA  PW   PBX  PBC
                           (   1   4   3   4   0   0   0)

     celldm(1)=  15.551040  celldm(2)=   0.000000  celldm(3)=   0.000000
     celldm(4)=   0.000000  celldm(5)=   0.000000  celldm(6)=   0.000000

     crystal axes: (cart. coord. in units of alat)
               a(1) = (   0.246007  -0.969268   0.000000 )  
               a(2) = (   0.246007   0.969268   0.000000 )  
               a(3) = (   0.000000   0.000000   1.683031 )  

     reciprocal axes: (cart. coord. in units 2 pi/alat)
               b(1) = (  2.032465 -0.515853  0.000000 )  
               b(2) = (  2.032465  0.515853  0.000000 )  
               b(3) = (  0.000000  0.000000  0.594166 )  


     PseudoPot. # 1 for Zr read from file:
     pseudo/Zr.pbe-spn-kjpaw_psl.1.0.0.UPF
     MD5 check sum: 02112c41713a0468aff2bb39ef194e36
     Pseudo is Projector augmented-wave + core cor, Zval = 12.0
     Generated using &quot;atomic&quot; code by A. Dal Corso  v.6.2.2
     Shape of augmentation charge: PSQ
     Using radial grid of 1225 points,  6 beta functions with: 
                l(1) =   0
                l(2) =   0
                l(3) =   1
                l(4) =   1
                l(5) =   2
                l(6) =   2
     Q(r) pseudized with 0 coefficients 


     PseudoPot. # 2 for Te read from file:
     pseudo/Te.pbe-n-kjpaw_psl.1.0.0.UPF
     MD5 check sum: 66247bff2bd9dbf220fbb0bf5ab56e9d
     Pseudo is Projector augmented-wave + core cor, Zval =  6.0
     Generated using &quot;atomic&quot; code by A. Dal Corso  v.6.3
     Shape of augmentation charge: PSQ
     Using radial grid of 1245 points,  6 beta functions with: 
                l(1) =   0
                l(2) =   0
                l(3) =   1
                l(4) =   1
                l(5) =   2
                l(6) =   2
     Q(r) pseudized with 0 coefficients 


     atomic species   valence    mass     pseudopotential
        Zr            12.00    91.22000     Zr( 1.00)
        Te             6.00   127.60000     Te( 1.00)

      8 Sym. Ops., with inversion, found ( 4 have fractional translation)



   Cartesian axes

     site n.     atom                  positions (alat units)
         1           Zr  tau(   1) = (   0.0000000   0.6089671   0.4207578  )
         2           Zr  tau(   2) = (   0.2460067   0.3603010   1.2622733  )
         3           Te  tau(   3) = (   0.2460067   0.3343159   0.4207578  )
         4           Te  tau(   4) = (   0.0000000   0.6349522   1.2622733  )
         5           Te  tau(   5) = (   0.2460067   0.8082964   0.2510194  )
         6           Te  tau(   6) = (   0.0000000   0.1609717   1.4320116  )
         7           Te  tau(   7) = (   0.2460067   0.8082964   0.5904961  )
         8           Te  tau(   8) = (   0.0000000   0.1609717   1.0925350  )
         9           Te  tau(   9) = (   0.0000000   0.4090063   0.7252671  )
        10           Te  tau(  10) = (   0.2460067   0.5602619   0.9577639  )
        11           Te  tau(  11) = (   0.0000000   0.4090063   0.1162484  )
        12           Te  tau(  12) = (   0.2460067   0.5602619   1.5667826  )

     number of k points=    63  Methfessel-Paxton smearing, width (Ry)=  0.0030
                       cart. coord. in units 2pi/alat
        k(    1) = (   0.0000000   0.0000000   0.0000000), wk =   0.0078125
        k(    2) = (   0.0000000   0.0000000   0.1485415), wk =   0.0156250
        k(    3) = (   0.0000000   0.0000000  -0.2970830), wk =   0.0078125
        k(    4) = (   0.2540581   0.0644816   0.0000000), wk =   0.0312500
        k(    5) = (   0.2540581   0.0644816   0.1485415), wk =   0.0625000
        k(    6) = (   0.2540581   0.0644816  -0.2970830), wk =   0.0312500
        k(    7) = (   0.5081162   0.1289633   0.0000000), wk =   0.0312500
        k(    8) = (   0.5081162   0.1289633   0.1485415), wk =   0.0625000
        k(    9) = (   0.5081162   0.1289633  -0.2970830), wk =   0.0312500
        k(   10) = (   0.7621743   0.1934449   0.0000000), wk =   0.0312500
        k(   11) = (   0.7621743   0.1934449   0.1485415), wk =   0.0625000
        k(   12) = (   0.7621743   0.1934449  -0.2970830), wk =   0.0312500
        k(   13) = (  -1.0162324  -0.2579266   0.0000000), wk =   0.0156250
        k(   14) = (  -1.0162324  -0.2579266   0.1485415), wk =   0.0312500
        k(   15) = (  -1.0162324  -0.2579266  -0.2970830), wk =   0.0156250
        k(   16) = (   0.5081162   0.0000000   0.0000000), wk =   0.0156250
        k(   17) = (   0.5081162   0.0000000   0.1485415), wk =   0.0312500
        k(   18) = (   0.5081162   0.0000000  -0.2970830), wk =   0.0156250
        k(   19) = (   0.7621743   0.0644816   0.0000000), wk =   0.0312500
        k(   20) = (   0.7621743   0.0644816   0.1485415), wk =   0.0625000
        k(   21) = (   0.7621743   0.0644816  -0.2970830), wk =   0.0312500
        k(   22) = (   1.0162324   0.1289633   0.0000000), wk =   0.0312500
        k(   23) = (   1.0162324   0.1289633   0.1485415), wk =   0.0625000
        k(   24) = (   1.0162324   0.1289633  -0.2970830), wk =   0.0312500
        k(   25) = (  -0.7621743  -0.3224082   0.0000000), wk =   0.0312500
        k(   26) = (  -0.7621743  -0.3224082   0.1485415), wk =   0.0625000
        k(   27) = (  -0.7621743  -0.3224082  -0.2970830), wk =   0.0312500
        k(   28) = (  -0.5081162  -0.2579266   0.0000000), wk =   0.0312500
        k(   29) = (  -0.5081162  -0.2579266   0.1485415), wk =   0.0625000
        k(   30) = (  -0.5081162  -0.2579266  -0.2970830), wk =   0.0312500
        k(   31) = (  -0.2540581  -0.1934449   0.0000000), wk =   0.0312500
        k(   32) = (  -0.2540581  -0.1934449   0.1485415), wk =   0.0625000
        k(   33) = (  -0.2540581  -0.1934449  -0.2970830), wk =   0.0312500
        k(   34) = (   0.0000000  -0.1289633   0.0000000), wk =   0.0156250
        k(   35) = (   0.0000000  -0.1289633   0.1485415), wk =   0.0312500
        k(   36) = (   0.0000000  -0.1289633  -0.2970830), wk =   0.0156250
        k(   37) = (   1.0162324   0.0000000   0.0000000), wk =   0.0156250
        k(   38) = (   1.0162324   0.0000000   0.1485415), wk =   0.0312500
        k(   39) = (   1.0162324   0.0000000  -0.2970830), wk =   0.0156250
        k(   40) = (   1.2702905   0.0644816   0.0000000), wk =   0.0312500
        k(   41) = (   1.2702905   0.0644816   0.1485415), wk =   0.0625000
        k(   42) = (   1.2702905   0.0644816  -0.2970830), wk =   0.0312500
        k(   43) = (  -0.5081162  -0.3868899   0.0000000), wk =   0.0312500
        k(   44) = (  -0.5081162  -0.3868899   0.1485415), wk =   0.0625000
        k(   45) = (  -0.5081162  -0.3868899  -0.2970830), wk =   0.0312500
        k(   46) = (  -0.2540581  -0.3224082   0.0000000), wk =   0.0312500
        k(   47) = (  -0.2540581  -0.3224082   0.1485415), wk =   0.0625000
        k(   48) = (  -0.2540581  -0.3224082  -0.2970830), wk =   0.0312500
        k(   49) = (   0.0000000  -0.2579266   0.0000000), wk =   0.0156250
        k(   50) = (   0.0000000  -0.2579266   0.1485415), wk =   0.0312500
        k(   51) = (   0.0000000  -0.2579266  -0.2970830), wk =   0.0156250
        k(   52) = (   1.5243485   0.0000000   0.0000000), wk =   0.0156250
        k(   53) = (   1.5243485   0.0000000   0.1485415), wk =   0.0312500
        k(   54) = (   1.5243485   0.0000000  -0.2970830), wk =   0.0156250
        k(   55) = (  -0.2540581  -0.4513715   0.0000000), wk =   0.0312500
        k(   56) = (  -0.2540581  -0.4513715   0.1485415), wk =   0.0625000
        k(   57) = (  -0.2540581  -0.4513715  -0.2970830), wk =   0.0312500
        k(   58) = (   0.0000000  -0.3868899   0.0000000), wk =   0.0156250
        k(   59) = (   0.0000000  -0.3868899   0.1485415), wk =   0.0312500
        k(   60) = (   0.0000000  -0.3868899  -0.2970830), wk =   0.0156250
        k(   61) = (  -2.0324647   0.0000000   0.0000000), wk =   0.0078125
        k(   62) = (  -2.0324647   0.0000000   0.1485415), wk =   0.0156250
        k(   63) = (  -2.0324647   0.0000000  -0.2970830), wk =   0.0078125

     Dense  grid:  1153415 G-vectors     FFT dimensions: ( 144, 144, 240)

     Smooth grid:   291749 G-vectors     FFT dimensions: (  90,  90, 150)

     Estimated max dynamical RAM per process >     657.19 MB

     Estimated total dynamical RAM >       6.42 GB

     Initial potential from superposition of free atoms

     starting charge   83.99353, renormalised to   84.00000
     Starting wfcs are   66 randomized atomic wfcs
     Checking if some PAW data can be deallocated... 

     total cpu time spent up to now is       19.7 secs

     Self-consistent Calculation

     iteration #  1     ecut=    80.00 Ry     beta= 0.70
     Davidson diagonalization with overlap
     ethr =  1.00E-02,  avg # of iterations =  2.0

     Threshold (ethr) on eigenvalues was too large:
     Diagonalizing with lowered threshold

     Davidson diagonalization with overlap
     ethr =  3.92E-04,  avg # of iterations =  4.0

     total cpu time spent up to now is      102.7 secs

     total energy              =   -4240.72630714 Ry
     estimated scf accuracy    <       0.42953555 Ry

     iteration #  2     ecut=    80.00 Ry     beta= 0.70
     Davidson diagonalization with overlap
     ethr =  5.11E-04,  avg # of iterations =  7.6

     total cpu time spent up to now is      162.5 secs

     total energy              =   -4240.63088763 Ry
     estimated scf accuracy    <       2.13524352 Ry

     iteration #  3     ecut=    80.00 Ry     beta= 0.70
     Davidson diagonalization with overlap
     ethr =  5.11E-04,  avg # of iterations =  5.3

     total cpu time spent up to now is      213.3 secs

     total energy              =   -4240.92715841 Ry
     estimated scf accuracy    <       0.01646826 Ry

     iteration #  4     ecut=    80.00 Ry     beta= 0.70
     Davidson diagonalization with overlap
     c_bands:  1 eigenvalues not converged
     c_bands:  2 eigenvalues not converged
     c_bands:  2 eigenvalues not converged
     c_bands:  1 eigenvalues not converged
     c_bands:  1 eigenvalues not converged
     c_bands:  1 eigenvalues not converged
     c_bands:  2 eigenvalues not converged
     c_bands:  1 eigenvalues not converged
     c_bands:  1 eigenvalues not converged
     c_bands:  1 eigenvalues not converged
     c_bands:  1 eigenvalues not converged
     c_bands:  2 eigenvalues not converged
     c_bands:  1 eigenvalues not converged
     c_bands:  1 eigenvalues not converged
     c_bands:  2 eigenvalues not converged
     c_bands:  1 eigenvalues not converged
     c_bands:  1 eigenvalues not converged
     ethr =  1.96E-05,  avg # of iterations = 17.0

     total cpu time spent up to now is      306.6 secs

     total energy              =   -4240.94304636 Ry
     estimated scf accuracy    <       0.09301713 Ry

     iteration #  5     ecut=    80.00 Ry     beta= 0.70
     Davidson diagonalization with overlap
     ethr =  1.96E-05,  avg # of iterations =  6.1

     total cpu time spent up to now is      354.7 secs

     total energy              =   -4240.94536709 Ry
     estimated scf accuracy    <       0.01942087 Ry

     iteration #  6     ecut=    80.00 Ry     beta= 0.70
     Davidson diagonalization with overlap
     ethr =  1.96E-05,  avg # of iterations =  3.1

     total cpu time spent up to now is      394.1 secs

     total energy              =   -4240.94676362 Ry
     estimated scf accuracy    <       0.00215005 Ry

     iteration #  7     ecut=    80.00 Ry     beta= 0.70
     Davidson diagonalization with overlap
     c_bands:  1 eigenvalues not converged
     c_bands:  1 eigenvalues not converged
     c_bands:  2 eigenvalues not converged
     c_bands:  1 eigenvalues not converged
     c_bands:  1 eigenvalues not converged
     c_bands:  1 eigenvalues not converged
     c_bands:  1 eigenvalues not converged
     ethr =  2.56E-06,  avg # of iterations = 14.4

     total cpu time spent up to now is      467.4 secs

     total energy              =   -4240.94800753 Ry
     estimated scf accuracy    <       0.00257091 Ry

     iteration #  8     ecut=    80.00 Ry     beta= 0.70
     Davidson diagonalization with overlap
     c_bands:  1 eigenvalues not converged
     ethr =  2.56E-06,  avg # of iterations =  2.7

     total cpu time spent up to now is      504.9 secs

     total energy              =   -4240.94802947 Ry
     estimated scf accuracy    <       0.00048770 Ry

     iteration #  9     ecut=    80.00 Ry     beta= 0.70
     Davidson diagonalization with overlap
     ethr =  5.81E-07,  avg # of iterations =  6.4

     total cpu time spent up to now is      552.7 secs

     total energy              =   -4240.94815518 Ry
     estimated scf accuracy    <       0.00000931 Ry

     iteration # 10     ecut=    80.00 Ry     beta= 0.70
     Davidson diagonalization with overlap
     ethr =  1.11E-08,  avg # of iterations =  8.7

     total cpu time spent up to now is      617.3 secs

     total energy              =   -4240.94816562 Ry
     estimated scf accuracy    <       0.00001340 Ry

     iteration # 11     ecut=    80.00 Ry     beta= 0.70
     Davidson diagonalization with overlap
     ethr =  1.11E-08,  avg # of iterations =  3.4

     total cpu time spent up to now is      657.8 secs

     total energy              =   -4240.94816761 Ry
     estimated scf accuracy    <       0.00000015 Ry

     iteration # 12     ecut=    80.00 Ry     beta= 0.70
     Davidson diagonalization with overlap
     ethr =  1.81E-10,  avg # of iterations = 10.2

     total cpu time spent up to now is      730.4 secs

     total energy              =   -4240.94816787 Ry
     estimated scf accuracy    <       0.00000036 Ry

     iteration # 13     ecut=    80.00 Ry     beta= 0.70
     Davidson diagonalization with overlap
     ethr =  1.81E-10,  avg # of iterations =  2.5

     total cpu time spent up to now is      769.4 secs

     total energy              =   -4240.94816788 Ry
     estimated scf accuracy    <       0.00000004 Ry

     iteration # 14     ecut=    80.00 Ry     beta= 0.70
     Davidson diagonalization with overlap
     ethr =  4.81E-11,  avg # of iterations =  7.4

     total cpu time spent up to now is      825.1 secs

     total energy              =   -4240.94816790 Ry
     estimated scf accuracy    <       0.00000002 Ry

     iteration # 15     ecut=    80.00 Ry     beta= 0.70
     Davidson diagonalization with overlap
     ethr =  2.86E-11,  avg # of iterations =  1.8

     total cpu time spent up to now is      860.9 secs

     total energy              =   -4240.94816790 Ry
     estimated scf accuracy    <          6.1E-09 Ry

     iteration # 16     ecut=    80.00 Ry     beta= 0.70
     Davidson diagonalization with overlap
     ethr =  7.25E-12,  avg # of iterations =  5.5

     total cpu time spent up to now is      905.3 secs

     End of self-consistent calculation

          k = 0.0000 0.0000 0.0000 ( 36359 PWs)   bands (ev):

   -44.1457 -44.1457 -22.2820 -22.2820 -22.1823 -22.1823 -22.0694 -22.0693
    -7.7146  -7.1848  -7.1467  -6.8059  -6.4523  -5.3682  -5.0456  -4.8790
    -4.8256  -3.8547   0.4066   0.7202   0.7580   1.0840   1.5085   1.5411
     2.3940   2.4205   2.6733   2.8928   2.9955   3.0140   3.1606   3.4806
     3.6117   3.6878   3.8961   4.0531   4.1658   4.3104   4.3264   4.6400
     5.0054   5.5412   5.6051   5.7025   5.8424   5.9973   6.3064   6.8248
     6.9507   7.2800

          k = 0.0000 0.0000 0.1485 ( 36415 PWs)   bands (ev):

   -44.1457 -44.1457 -22.2820 -22.2820 -22.1823 -22.1823 -22.0694 -22.0693
    -7.6761  -7.3848  -6.9701  -6.8183  -6.3579  -5.6906  -4.8906  -4.8359
    -4.6914  -3.9719   0.4590   0.7575   0.9089   1.0404   1.0560   1.9773
     2.0950   2.4220   2.6078   2.9263   2.9885   3.1149   3.3700   3.3730
     3.6745   3.7679   3.8835   4.0486   4.1128   4.3300   4.3413   4.6502
     4.8568   5.0396   5.7535   5.9506   5.9968   6.0150   6.6146   6.6356
     6.7795   7.2438

          k = 0.0000 0.0000-0.2971 ( 36410 PWs)   bands (ev):

   -44.1457 -44.1457 -22.2820 -22.2820 -22.1823 -22.1823 -22.0694 -22.0694
    -7.5630  -7.5630  -6.8626  -6.8626  -6.0805  -6.0805  -4.8610  -4.8610
    -4.2817  -4.2817   0.6572   0.6572   0.8837   0.8837   1.4050   1.4050
     2.5006   2.5006   2.6780   2.6780   2.9664   2.9664   3.4212   3.4212
     3.8563   3.8563   3.9525   3.9525   4.3315   4.3315   4.4083   4.4083
     4.7039   4.7039   5.9577   5.9577   6.2244   6.2244   6.3880   6.3880
     7.1030   7.1030

          k = 0.2541 0.0645 0.0000 ( 36396 PWs)   bands (ev):

   -44.1453 -44.1453 -22.2801 -22.2801 -22.1922 -22.1922 -22.0682 -22.0681
    -7.5999  -7.0784  -7.0697  -6.7591  -6.3908  -5.3282  -5.0444  -4.8373
    -4.7830  -3.9970   0.4935   0.8528   0.8912   1.2025   1.3367   1.4142
     1.9045   1.9814   2.1864   2.5416   2.5816   3.0721   3.4092   3.6908
     3.7094   3.7396   3.7822   3.7833   4.0101   4.2122   4.2438   4.2538
     4.4739   4.6514   5.7393   5.9826   6.2565   6.5540   6.6204   6.8250
     7.0055   7.1498

          k = 0.2541 0.0645 0.1485 ( 36423 PWs)   bands (ev):

   -44.1453 -44.1453 -22.2801 -22.2801 -22.1922 -22.1922 -22.0682 -22.0681
    -7.5623  -7.2800  -6.9000  -6.7701  -6.2909  -5.6358  -4.8682  -4.7954
    -4.6975  -4.0909   0.5335   0.8923   0.9717   0.9816   1.1558   1.5496
     1.8353   2.2902   2.3829   2.5345   2.5535   2.9319   3.2877   3.3132
     3.6177   3.7101   3.8808   3.9073   4.0105   4.1127   4.2599   4.3021
     4.6863   4.9691   5.8171   5.8603   6.1998   6.2696   6.4583   6.6983
     7.2464   7.3070

          k = 0.2541 0.0645-0.2971 ( 36436 PWs)   bands (ev):

   -44.1453 -44.1453 -22.2801 -22.2801 -22.1922 -22.1922 -22.0682 -22.0682
    -7.4522  -7.4522  -6.8084  -6.8084  -6.0126  -6.0126  -4.8259  -4.8259
    -4.3481  -4.3481   0.6884   0.6884   0.9936   0.9936   1.2432   1.2432
     2.2889   2.2889   2.5119   2.5119   2.6782   2.6782   3.1302   3.1302
     3.6062   3.6062   3.8920   3.8920   4.0621   4.0621   4.3020   4.3020
     5.1229   5.1229   5.7569   5.7569   6.1073   6.1073   6.4522   6.4522
     7.4340   7.4340

          k = 0.5081 0.1290 0.0000 ( 36499 PWs)   bands (ev):

   -44.1444 -44.1444 -22.2753 -22.2753 -22.2160 -22.2160 -22.0653 -22.0652
    -7.2766  -6.8888  -6.7711  -6.6306  -6.1951  -5.2480  -5.0969  -4.7281
    -4.6781  -4.4255   0.5564   0.6135   0.6931   1.2066   1.2584   1.5046
     1.6753   1.7701   2.0522   2.0763   2.1662   2.2872   2.3438   3.3066
     3.3944   3.4587   3.4873   3.5857   3.7682   3.8808   3.9187   4.1601
     4.5343   5.2165   5.4560   5.9614   5.9792   6.5599   6.5733   6.8839
     7.4145   7.5661

          k = 0.5081 0.1290 0.1485 ( 36476 PWs)   bands (ev):

   -44.1444 -44.1444 -22.2753 -22.2753 -22.2160 -22.2160 -22.0653 -22.0652
    -7.2428  -7.0019  -6.7083  -6.6380  -6.0871  -5.5043  -4.9106  -4.7063
    -4.6792  -4.4574   0.5080   0.7057   0.8145   1.0592   1.2415   1.4198
     1.4809   1.6146   2.0281   2.0840   2.3251   2.5082   2.8042   3.3310
     3.3937   3.4200   3.4968   3.5821   3.6675   3.7535   3.8460   4.2192
     4.3606   4.5543   6.0692   6.1312   6.2462   6.5640   6.6159   6.7533
     7.2544   7.4932

          k = 0.5081 0.1290-0.2971 ( 36466 PWs)   bands (ev):

   -44.1444 -44.1444 -22.2753 -22.2753 -22.2160 -22.2160 -22.0652 -22.0652
    -7.1455  -7.1455  -6.6613  -6.6613  -5.8253  -5.8253  -4.7788  -4.7788
    -4.5557  -4.5557   0.5948   0.5948   1.0726   1.0726   1.1930   1.1930
     1.3849   1.3849   2.0571   2.0571   2.7458   2.7458   3.1328   3.1328
     3.3709   3.3709   3.5510   3.5510   3.7003   3.7003   3.8244   3.8244
     4.3035   4.3035   6.3074   6.3074   6.5429   6.5429   6.7955   6.7955
     7.1055   7.1055

          k = 0.7622 0.1934 0.0000 ( 36521 PWs)   bands (ev):

   -44.1435 -44.1435 -22.2705 -22.2705 -22.2397 -22.2397 -22.0623 -22.0623
    -6.8676  -6.7272  -6.3871  -6.3053  -5.8657  -5.3272  -5.2495  -5.0748
    -4.6055  -4.5701   0.0116   0.1838   0.6155   1.0905   1.1152   1.2469
     1.4765   1.5973   1.9307   1.9986   2.2659   2.4078   2.4453   2.7662
     2.8190   3.2604   3.3157   3.3938   3.6318   3.6834   3.7528   3.7819
     3.9220   4.5650   5.8064   6.2296   6.3004   6.7553   6.7731   6.8719
     7.2440   7.7445

          k = 0.7622 0.1934 0.1485 ( 36503 PWs)   bands (ev):

   -44.1435 -44.1435 -22.2705 -22.2705 -22.2397 -22.2397 -22.0623 -22.0623
    -6.8481  -6.7479  -6.3855  -6.3363  -5.7796  -5.4256  -5.1987  -5.0931
    -4.5956  -4.5715   0.0672   0.3070   0.4884   0.9456   1.0982   1.2127
     1.4916   1.6486   1.7936   2.0749   2.1357   2.6344   2.6916   2.8041
     2.8726   3.1228   3.2717   3.3871   3.5073   3.6217   3.6604   3.9147
     3.9826   4.6375   5.5053   6.2847   6.5886   6.6528   6.8142   6.9321
     7.0201   7.5139

          k = 0.7622 0.1934-0.2971 ( 36522 PWs)   bands (ev):

   -44.1435 -44.1435 -22.2705 -22.2705 -22.2397 -22.2397 -22.0623 -22.0623
    -6.7988  -6.7988  -6.3728  -6.3728  -5.6013  -5.6013  -5.1395  -5.1395
    -4.5795  -4.5795   0.2393   0.2393   0.6395   0.6395   1.0756   1.0756
     1.5717   1.5717   1.9999   1.9999   2.3676   2.3676   2.8011   2.8011
     2.9951   2.9951   3.3647   3.3647   3.5824   3.5824   3.8276   3.8276
     4.1471   4.1471   6.0405   6.0405   6.3991   6.3991   6.8970   6.8970
     7.3537   7.3537

          k =-1.0162-0.2579 0.0000 ( 36506 PWs)   bands (ev):

   -44.1431 -44.1431 -22.2684 -22.2684 -22.2497 -22.2497 -22.0611 -22.0611
    -6.6976  -6.6776  -5.8565  -5.8454  -5.7779  -5.7679  -5.4433  -5.4426
    -4.5483  -4.5265   0.0467   0.0715   0.3868   0.4072   1.0112   1.0202
     1.4663   1.6717   2.2333   2.3714   2.3769   2.3773   2.7889   2.8137
     2.8177   2.8906   3.2455   3.2626   3.3059   3.4600   3.5675   3.6739
     3.7805   3.9929   6.4348   6.4611   6.5009   6.5834   6.9702   7.0494
     7.0603   7.0679

          k =-1.0162-0.2579 0.1485 ( 36506 PWs)   bands (ev):

   -44.1431 -44.1431 -22.2684 -22.2684 -22.2497 -22.2497 -22.0611 -22.0611
    -6.6940  -6.6798  -5.8717  -5.8632  -5.7635  -5.7574  -5.4359  -5.4358
    -4.5497  -4.5343  -0.0464  -0.0385   0.6102   0.6164   1.0189   1.0417
     1.4636   1.5877   1.9437   2.0278   2.3746   2.3889   2.7316   2.7318
     2.9454   2.9968   3.1443   3.2047   3.5522   3.5655   3.6989   3.7431
     4.0625   4.1139   5.9145   5.9263   6.4267   6.5008   6.9895   7.0229
     7.2658   7.2988

          k =-1.0162-0.2579-0.2971 ( 36528 PWs)   bands (ev):

   -44.1431 -44.1431 -22.2684 -22.2684 -22.2497 -22.2497 -22.0611 -22.0611
    -6.6862  -6.6862  -5.8806  -5.8806  -5.7514  -5.7514  -5.4287  -5.4287
    -4.5466  -4.5466  -0.1044  -0.1044   0.9153   0.9153   0.9486   0.9486
     1.5544   1.5544   1.6345   1.6345   2.3748   2.3748   2.7767   2.7767
     2.9286   2.9286   3.1744   3.1744   3.6148   3.6148   3.7875   3.7875
     4.4904   4.4904   5.3962   5.3962   6.3872   6.3872   7.0290   7.0290
     7.3473   7.3473

          k = 0.5081 0.0000 0.0000 ( 36503 PWs)   bands (ev):

   -44.1444 -44.1444 -22.2753 -22.2753 -22.2160 -22.2160 -22.0653 -22.0652
    -7.2819  -6.8904  -6.7721  -6.6245  -6.1910  -5.2487  -5.0937  -4.7234
    -4.6839  -4.4250   0.5572   0.6198   0.6876   1.1775   1.2534   1.4831
     1.6780   1.7754   2.0627   2.0739   2.1244   2.2909   2.3394   3.2911
     3.4146   3.4316   3.5445   3.5988   3.7743   3.8666   3.9651   4.1973
     4.5364   5.2153   5.4618   5.9563   5.9990   6.5201   6.5224   6.9193
     7.4375   7.5762

          k = 0.5081 0.0000 0.1485 ( 36453 PWs)   bands (ev):

   -44.1444 -44.1444 -22.2753 -22.2753 -22.2160 -22.2160 -22.0653 -22.0652
    -7.2480  -7.0058  -6.7051  -6.6320  -6.0850  -5.5048  -4.9051  -4.7082
    -4.6794  -4.4583   0.5076   0.7008   0.8183   1.0610   1.2177   1.4310
     1.4438   1.6056   2.0237   2.0903   2.3339   2.4757   2.7979   3.3190
     3.3951   3.4521   3.4973   3.5916   3.6627   3.8164   3.8400   4.2556
     4.3751   4.5521   6.0665   6.1453   6.2573   6.5138   6.5800   6.7845
     7.2783   7.4994

          k = 0.5081 0.0000-0.2971 ( 36452 PWs)   bands (ev):

   -44.1444 -44.1444 -22.2753 -22.2753 -22.2160 -22.2160 -22.0652 -22.0652
    -7.1504  -7.1504  -6.6557  -6.6557  -5.8252  -5.8252  -4.7747  -4.7747
    -4.5585  -4.5585   0.5910   0.5910   1.0726   1.0726   1.2114   1.2114
     1.3412   1.3412   2.0580   2.0580   2.7368   2.7368   3.1150   3.1150
     3.3669   3.3669   3.5883   3.5883   3.7192   3.7192   3.8266   3.8266
     4.3263   4.3263   6.3232   6.3232   6.5075   6.5075   6.8117   6.8117
     7.1071   7.1071

          k = 0.7622 0.0645 0.0000 ( 36505 PWs)   bands (ev):

   -44.1435 -44.1435 -22.2705 -22.2705 -22.2397 -22.2397 -22.0623 -22.0623
    -6.8768  -6.7252  -6.3782  -6.3073  -5.8652  -5.3231  -5.2503  -5.0743
    -4.5977  -4.5791   0.0065   0.1949   0.6368   1.1029   1.1227   1.2612
     1.4362   1.5561   1.9061   2.0142   2.2470   2.3655   2.4274   2.7391
     2.8055   3.3143   3.3422   3.4094   3.6153   3.6499   3.7758   3.8265
     3.9398   4.6048   5.8044   6.2406   6.2709   6.7250   6.8292   6.8307
     7.2643   7.5953

          k = 0.7622 0.0645 0.1485 ( 36509 PWs)   bands (ev):

   -44.1435 -44.1435 -22.2705 -22.2705 -22.2397 -22.2397 -22.0623 -22.0623
    -6.8564  -6.7486  -6.3768  -6.3347  -5.7802  -5.4254  -5.1965  -5.0922
    -4.5902  -4.5778   0.0671   0.3120   0.4979   0.9614   1.1004   1.2282
     1.4560   1.6484   1.8192   2.0019   2.0654   2.6533   2.6756   2.7809
     2.8582   3.1244   3.3341   3.4014   3.4804   3.6351   3.6783   3.9333
     4.0234   4.6360   5.5316   6.2662   6.5957   6.6475   6.8301   6.9290
     6.9976   7.5327

          k = 0.7622 0.0645-0.2971 ( 36472 PWs)   bands (ev):

   -44.1435 -44.1435 -22.2705 -22.2705 -22.2397 -22.2397 -22.0623 -22.0623
    -6.8042  -6.8042  -6.3662  -6.3662  -5.6025  -5.6025  -5.1375  -5.1375
    -4.5798  -4.5798   0.2445   0.2445   0.6343   0.6343   1.1001   1.1001
     1.5652   1.5652   1.9514   1.9514   2.3351   2.3351   2.7987   2.7987
     2.9867   2.9867   3.4285   3.4285   3.5790   3.5790   3.8165   3.8165
     4.1700   4.1700   6.0652   6.0652   6.4003   6.4003   6.8633   6.8633
     7.3805   7.3805

          k = 1.0162 0.1290 0.0000 ( 36514 PWs)   bands (ev):

   -44.1431 -44.1431 -22.2684 -22.2684 -22.2497 -22.2497 -22.0611 -22.0611
    -6.6976  -6.6776  -5.8562  -5.8457  -5.7779  -5.7679  -5.4434  -5.4425
    -4.5483  -4.5265   0.0408   0.0776   0.3817   0.4125   1.0057   1.0271
     1.4717   1.6629   2.2349   2.3643   2.3663   2.3829   2.7878   2.8100
     2.8415   2.8932   3.2419   3.2601   3.3070   3.4518   3.5912   3.6600
     3.7625   4.0050   6.4278   6.4691   6.4961   6.5892   6.9840   7.0515
     7.0597   7.0624

          k = 1.0162 0.1290 0.1485 ( 36524 PWs)   bands (ev):

   -44.1431 -44.1431 -22.2684 -22.2684 -22.2497 -22.2497 -22.0611 -22.0611
    -6.6940  -6.6798  -5.8715  -5.8634  -5.7635  -5.7575  -5.4362  -5.4355
    -4.5497  -4.5343  -0.0486  -0.0367   0.6105   0.6166   1.0226   1.0388
     1.4683   1.5838   1.9539   2.0136   2.3699   2.3845   2.6858   2.7853
     2.9614   3.0109   3.1237   3.2023   3.5329   3.6033   3.6906   3.7258
     4.0475   4.1331   5.9049   5.9386   6.4238   6.5034   6.9961   7.0216
     7.2706   7.2942

          k = 1.0162 0.1290-0.2971 ( 36516 PWs)   bands (ev):

   -44.1431 -44.1431 -22.2684 -22.2684 -22.2497 -22.2497 -22.0611 -22.0611
    -6.6862  -6.6862  -5.8806  -5.8806  -5.7514  -5.7514  -5.4287  -5.4287
    -4.5466  -4.5466  -0.1045  -0.1045   0.9140   0.9140   0.9508   0.9508
     1.5544   1.5544   1.6356   1.6356   2.3650   2.3650   2.7608   2.7608
     2.9794   2.9794   3.1470   3.1470   3.6201   3.6201   3.7815   3.7815
     4.4908   4.4908   5.3982   5.3982   6.3868   6.3868   7.0311   7.0311
     7.3475   7.3475

          k =-0.7622-0.3224 0.0000 ( 36511 PWs)   bands (ev):

   -44.1435 -44.1435 -22.2705 -22.2705 -22.2397 -22.2397 -22.0623 -22.0623
    -6.8532  -6.7313  -6.3997  -6.3024  -5.8666  -5.3330  -5.2484  -5.0754
    -4.6119  -4.5622   0.0191   0.1685   0.5867   1.0618   1.1323   1.2285
     1.4997   1.6623   1.9786   1.9818   2.3157   2.4358   2.4709   2.8029
     2.8351   3.1870   3.2934   3.4088   3.5886   3.6586   3.7332   3.8154
     3.8830   4.4998   5.8093   6.2204   6.3448   6.6912   6.8017   6.9385
     7.2081   7.5813

          k =-0.7622-0.3224 0.1485 ( 36492 PWs)   bands (ev):

   -44.1435 -44.1435 -22.2705 -22.2705 -22.2397 -22.2397 -22.0623 -22.0623
    -6.8351  -6.7477  -6.3979  -6.3387  -5.7786  -5.4261  -5.2018  -5.0943
    -4.5999  -4.5659   0.0666   0.3017   0.4741   0.9241   1.1049   1.1913
     1.5359   1.6455   1.7734   2.1810   2.2298   2.6174   2.7011   2.8303
     2.8883   3.1425   3.1908   3.3729   3.4794   3.6199   3.6620   3.8825
     3.9189   4.6383   5.4702   6.3146   6.5646   6.6569   6.7938   6.9655
     7.0464   7.4801

          k =-0.7622-0.3224-0.2971 ( 36508 PWs)   bands (ev):

   -44.1435 -44.1435 -22.2705 -22.2705 -22.2397 -22.2397 -22.0623 -22.0623
    -6.7908  -6.7908  -6.3825  -6.3825  -5.5995  -5.5995  -5.1423  -5.1423
    -4.5790  -4.5790   0.2319   0.2319   0.6468   0.6468   1.0471   1.0471
     1.5790   1.5790   2.0546   2.0546   2.4327   2.4327   2.8066   2.8066
     3.0065   3.0065   3.2749   3.2749   3.5840   3.5840   3.8304   3.8304
     4.1193   4.1193   6.0080   6.0080   6.3960   6.3960   6.9537   6.9537
     7.3080   7.3080

          k =-0.5081-0.2579 0.0000 ( 36480 PWs)   bands (ev):

   -44.1444 -44.1444 -22.2753 -22.2753 -22.2160 -22.2160 -22.0653 -22.0652
    -7.2632  -6.8855  -6.7688  -6.6449  -6.2052  -5.2465  -5.1049  -4.7353
    -4.6680  -4.4265   0.5583   0.5988   0.6979   1.2699   1.2926   1.5563
     1.6741   1.7599   2.0230   2.1117   2.2307   2.2796   2.3509   3.3435
     3.3666   3.3928   3.4913   3.5131   3.7400   3.8479   3.8919   4.0856
     4.5256   5.2171   5.4444   5.8727   6.0352   6.6592   6.6937   6.7993
     7.3499   7.5444

          k =-0.5081-0.2579 0.1485 ( 36485 PWs)   bands (ev):

   -44.1444 -44.1444 -22.2753 -22.2753 -22.2160 -22.2160 -22.0653 -22.0652
    -7.2296  -6.9924  -6.7166  -6.6525  -6.0923  -5.5033  -4.9233  -4.7028
    -4.6781  -4.4553   0.5095   0.7146   0.8045   1.0553   1.3068   1.4172
     1.5485   1.6404   2.0341   2.0753   2.3137   2.5703   2.8192   3.3221
     3.3611   3.3998   3.4963   3.5288   3.6413   3.7075   3.8317   4.1435
     4.3178   4.5578   6.0539   6.1126   6.2272   6.6654   6.6898   6.7155
     7.1919   7.4817

          k =-0.5081-0.2579-0.2971 ( 36478 PWs)   bands (ev):

   -44.1444 -44.1444 -22.2753 -22.2753 -22.2160 -22.2160 -22.0652 -22.0652
    -7.1332  -7.1332  -6.6753  -6.6753  -5.8255  -5.8255  -4.7884  -4.7884
    -4.5493  -4.5493   0.6034   0.6034   1.0721   1.0721   1.1665   1.1665
     1.4809   1.4809   2.0524   2.0524   2.7707   2.7707   3.1731   3.1731
     3.3722   3.3722   3.4410   3.4410   3.6885   3.6885   3.8128   3.8128
     4.2478   4.2478   6.2695   6.2695   6.6186   6.6186   6.7627   6.7627
     7.1078   7.1078

          k =-0.2541-0.1934 0.0000 ( 36410 PWs)   bands (ev):

   -44.1453 -44.1453 -22.2801 -22.2801 -22.1922 -22.1922 -22.0682 -22.0681
    -7.5905  -7.0768  -7.0619  -6.7703  -6.4054  -5.3281  -5.0518  -4.8450
    -4.7726  -3.9981   0.5217   0.8998   0.9247   1.2295   1.3694   1.4132
     1.9280   2.0022   2.1891   2.5076   2.5672   3.1387   3.3519   3.6022
     3.6381   3.7082   3.7622   3.8449   3.8990   4.1946   4.2120   4.2252
     4.4042   4.6359   5.7912   6.0035   6.3103   6.6005   6.6135   6.8384
     6.9954   7.0715

          k =-0.2541-0.1934 0.1485 ( 36427 PWs)   bands (ev):

   -44.1453 -44.1453 -22.2801 -22.2801 -22.1922 -22.1922 -22.0682 -22.0681
    -7.5530  -7.2721  -6.9030  -6.7811  -6.3006  -5.6361  -4.8864  -4.7897
    -4.6908  -4.0908   0.5578   0.9371   0.9884   1.0306   1.1859   1.5656
     1.8390   2.2926   2.4055   2.5148   2.5411   2.9164   3.2993   3.3536
     3.5754   3.6393   3.7425   3.8925   3.9728   4.0933   4.2190   4.2483
     4.6762   4.9555   5.7996   5.8816   6.1810   6.3305   6.5322   6.7049
     7.2040   7.2981

          k =-0.2541-0.1934-0.2971 ( 36422 PWs)   bands (ev):

   -44.1453 -44.1453 -22.2801 -22.2801 -22.1922 -22.1922 -22.0682 -22.0682
    -7.4432  -7.4432  -6.8178  -6.8178  -6.0155  -6.0155  -4.8315  -4.8315
    -4.3453  -4.3453   0.7066   0.7066   1.0581   1.0581   1.2519   1.2519
     2.2888   2.2888   2.4983   2.4983   2.6786   2.6786   3.1565   3.1565
     3.5535   3.5535   3.8082   3.8082   4.0488   4.0488   4.2465   4.2465
     5.1262   5.1262   5.7164   5.7164   6.1051   6.1051   6.5377   6.5377
     7.4094   7.4094

          k = 0.0000-0.1290 0.0000 ( 36417 PWs)   bands (ev):

   -44.1457 -44.1457 -22.2820 -22.2820 -22.1823 -22.1823 -22.0694 -22.0693
    -7.7097  -7.1839  -7.1415  -6.8120  -6.4614  -5.3684  -5.0496  -4.8848
    -4.8184  -3.8553   0.4287   0.7618   0.7632   1.0912   1.5342   1.5519
     2.3966   2.4216   2.6803   2.8914   2.9931   3.0206   3.1983   3.4540
     3.5515   3.6770   3.7992   4.0146   4.1658   4.2582   4.2761   4.6404
     4.9962   5.5000   5.6307   5.7098   5.8583   6.0430   6.3574   6.8037
     6.9512   7.2579

          k = 0.0000-0.1290 0.1485 ( 36419 PWs)   bands (ev):

   -44.1457 -44.1457 -22.2820 -22.2820 -22.1823 -22.1823 -22.0694 -22.0693
    -7.6712  -7.3806  -6.9707  -6.8242  -6.3644  -5.6911  -4.9014  -4.8318
    -4.6879  -3.9720   0.4789   0.7994   0.9219   1.0379   1.0795   1.9847
     2.1109   2.4248   2.6131   2.9256   2.9864   3.1319   3.3319   3.3715
     3.6681   3.7584   3.7914   3.9866   4.1108   4.2817   4.2940   4.6505
     4.8520   5.0281   5.7631   5.9546   6.0147   6.0412   6.6031   6.6678
     6.7804   7.2300

          k = 0.0000-0.1290-0.2971 ( 36464 PWs)   bands (ev):

   -44.1457 -44.1457 -22.2820 -22.2820 -22.1823 -22.1823 -22.0694 -22.0694
    -7.5582  -7.5582  -6.8673  -6.8673  -6.0828  -6.0828  -4.8639  -4.8639
    -4.2805  -4.2805   0.6807   0.6807   0.9047   0.9047   1.4134   1.4134
     2.5043   2.5043   2.6886   2.6886   2.9651   2.9651   3.3953   3.3953
     3.8141   3.8141   3.9463   3.9463   4.2425   4.2425   4.4228   4.4228
     4.7031   4.7031   5.9555   5.9555   6.2464   6.2464   6.3899   6.3899
     7.1041   7.1041

          k = 1.0162 0.0000 0.0000 ( 36499 PWs)   bands (ev):

   -44.1431 -44.1431 -22.2684 -22.2684 -22.2497 -22.2497 -22.0611 -22.0611
    -6.6976  -6.6776  -5.8558  -5.8461  -5.7780  -5.7679  -5.4434  -5.4425
    -4.5483  -4.5265   0.0364   0.0821   0.3779   0.4164   1.0027   1.0315
     1.4777   1.6534   2.2365   2.3526   2.3638   2.3865   2.7870   2.8060
     2.8625   2.8974   3.2373   3.2775   3.2907   3.4398   3.6239   3.6481
     3.7371   4.0162   6.4228   6.4749   6.4917   6.5946   7.0030   7.0464
     7.0535   7.0646

          k = 1.0162 0.0000 0.1485 ( 36485 PWs)   bands (ev):

   -44.1431 -44.1431 -22.2684 -22.2684 -22.2497 -22.2497 -22.0611 -22.0611
    -6.6940  -6.6798  -5.8713  -5.8636  -5.7634  -5.7575  -5.4364  -5.4353
    -4.5497  -4.5343  -0.0502  -0.0354   0.6109   0.6169   1.0310   1.0311
     1.4735   1.5792   1.9768   1.9865   2.3678   2.3779   2.6709   2.8037
     2.9803   3.0530   3.0754   3.2005   3.5269   3.6349   3.6864   3.6973
     4.0377   4.1470   5.9000   5.9463   6.4211   6.5058   7.0045   7.0185
     7.2803   7.2850

          k = 1.0162 0.0000-0.2971 ( 36514 PWs)   bands (ev):

   -44.1431 -44.1431 -22.2684 -22.2684 -22.2497 -22.2497 -22.0611 -22.0611
    -6.6862  -6.6862  -5.8805  -5.8805  -5.7514  -5.7514  -5.4287  -5.4287
    -4.5466  -4.5466  -0.1046  -0.1046   0.9127   0.9127   0.9529   0.9529
     1.5545   1.5545   1.6368   1.6368   2.3555   2.3555   2.7498   2.7498
     3.0613   3.0613   3.0837   3.0837   3.6256   3.6256   3.7752   3.7752
     4.4913   4.4913   5.4003   5.4003   6.3863   6.3863   7.0331   7.0331
     7.3477   7.3477

          k = 1.2703 0.0645 0.0000 ( 36468 PWs)   bands (ev):

   -44.1435 -44.1435 -22.2705 -22.2705 -22.2397 -22.2397 -22.0623 -22.0623
    -6.8416  -6.7355  -6.4088  -6.3003  -5.8672  -5.3372  -5.2476  -5.0759
    -4.6151  -4.5578   0.0244   0.1580   0.5670   1.0487   1.1444   1.2156
     1.5041   1.7086   1.9657   2.0313   2.3654   2.4320   2.4896   2.8301
     2.8412   3.1241   3.3102   3.4671   3.5364   3.5591   3.7309   3.8431
     3.8864   4.4432   5.8115   6.2186   6.3786   6.6327   6.8377   6.9952
     7.1725   7.5857

          k = 1.2703 0.0645 0.1485 ( 36490 PWs)   bands (ev):

   -44.1435 -44.1435 -22.2705 -22.2705 -22.2397 -22.2397 -22.0623 -22.0623
    -6.8248  -6.7485  -6.4067  -6.3406  -5.7779  -5.4264  -5.2040  -5.0953
    -4.6021  -4.5628   0.0656   0.2992   0.4632   0.9102   1.1146   1.1756
     1.5680   1.6381   1.7650   2.2585   2.3016   2.6040   2.7036   2.8428
     2.9002   3.1256   3.1810   3.3719   3.4316   3.5718   3.7413   3.8245
     3.8774   4.6378   5.4468   6.3405   6.5346   6.6589   6.7867   7.0044
     7.0614   7.4506

          k = 1.2703 0.0645-0.2971 ( 36480 PWs)   bands (ev):

   -44.1435 -44.1435 -22.2705 -22.2705 -22.2397 -22.2397 -22.0623 -22.0623
    -6.7849  -6.7849  -6.3895  -6.3895  -5.5982  -5.5982  -5.1443  -5.1443
    -4.5786  -4.5786   0.2265   0.2265   0.6518   0.6518   1.0304   1.0304
     1.5839   1.5839   2.0823   2.0823   2.4951   2.4951   2.8189   2.8189
     3.0109   3.0109   3.2028   3.2028   3.5858   3.5858   3.8230   3.8230
     4.1043   4.1043   5.9866   5.9866   6.3932   6.3932   7.0040   7.0040
     7.2664   7.2664

          k =-0.5081-0.3869 0.0000 ( 36463 PWs)   bands (ev):

   -44.1444 -44.1444 -22.2753 -22.2753 -22.2160 -22.2160 -22.0653 -22.0652
    -7.2489  -6.8835  -6.7665  -6.6585  -6.2158  -5.2450  -5.1128  -4.7396
    -4.6607  -4.4276   0.5651   0.5850   0.6917   1.2804   1.4213   1.5958
     1.6649   1.7516   2.0088   2.1525   2.2639   2.2801   2.3514   3.2464
     3.3721   3.4071   3.4218   3.5437   3.7011   3.8037   3.8223   4.0775
     4.5139   5.2124   5.4352   5.7836   6.0976   6.7141   6.7720   6.8125
     7.2648   7.5395

          k =-0.5081-0.3869 0.1485 ( 36477 PWs)   bands (ev):

   -44.1444 -44.1444 -22.2753 -22.2753 -22.2160 -22.2160 -22.0653 -22.0652
    -7.2155  -6.9826  -6.7262  -6.6670  -6.0975  -5.5021  -4.9352  -4.7011
    -4.6760  -4.4532   0.5118   0.7206   0.7925   1.0519   1.3872   1.4219
     1.5970   1.6865   2.0359   2.0756   2.3037   2.6140   2.8368   3.2101
     3.3669   3.4011   3.4402   3.5308   3.6462   3.6934   3.7773   4.1102
     4.2549   4.5604   5.9998   6.1263   6.2182   6.6063   6.7815   6.8366
     7.1136   7.4827

          k =-0.5081-0.3869-0.2971 ( 36492 PWs)   bands (ev):

   -44.1444 -44.1444 -22.2753 -22.2753 -22.2160 -22.2160 -22.0652 -22.0652
    -7.1201  -7.1201  -6.6903  -6.6903  -5.8255  -5.8255  -4.7975  -4.7975
    -4.5434  -4.5434   0.6115   0.6115   1.0709   1.0709   1.1487   1.1487
     1.5850   1.5850   2.0401   2.0401   2.8013   2.8013   3.1801   3.1801
     3.3216   3.3216   3.4059   3.4059   3.6823   3.6823   3.7966   3.7966
     4.1924   4.1924   6.2328   6.2328   6.6522   6.6522   6.7626   6.7626
     7.1230   7.1230

          k =-0.2541-0.3224 0.0000 ( 36485 PWs)   bands (ev):

   -44.1453 -44.1453 -22.2801 -22.2801 -22.1922 -22.1922 -22.0682 -22.0681
    -7.5766  -7.0745  -7.0513  -6.7851  -6.4274  -5.3279  -5.0628  -4.8501
    -4.7631  -3.9995   0.5479   0.9130   1.0493   1.2787   1.4091   1.4413
     1.9643   2.0353   2.1900   2.4298   2.5193   3.2529   3.2581   3.4206
     3.5881   3.6336   3.7376   3.8716   3.8756   4.1032   4.1674   4.1911
     4.3874   4.5934   5.8736   6.0230   6.3595   6.5712   6.6992   6.8567
     6.9279   7.0127

          k =-0.2541-0.3224 0.1485 ( 36445 PWs)   bands (ev):

   -44.1453 -44.1453 -22.2801 -22.2801 -22.1922 -22.1922 -22.0682 -22.0681
    -7.5393  -7.2605  -6.9085  -6.7961  -6.3144  -5.6363  -4.9077  -4.7854
    -4.6822  -4.0906   0.5786   0.9644   1.0194   1.1483   1.2630   1.5898
     1.8501   2.2933   2.4286   2.4420   2.5227   2.8951   3.3381   3.3662
     3.4099   3.5329   3.7094   3.8830   3.9119   4.0695   4.1351   4.1922
     4.6921   4.9241   5.7831   5.9109   6.1744   6.3390   6.6320   6.7272
     7.1550   7.2840

          k =-0.2541-0.3224-0.2971 ( 36442 PWs)   bands (ev):

   -44.1453 -44.1453 -22.2801 -22.2801 -22.1922 -22.1922 -22.0682 -22.0682
    -7.4300  -7.4300  -6.8317  -6.8317  -6.0194  -6.0194  -4.8394  -4.8394
    -4.3414  -4.3414   0.7194   0.7194   1.1851   1.1851   1.2638   1.2638
     2.2891   2.2891   2.4568   2.4568   2.6751   2.6751   3.2023   3.2023
     3.3906   3.3906   3.7927   3.7927   4.0224   4.0224   4.1743   4.1743
     5.1333   5.1333   5.6723   5.6723   6.0823   6.0823   6.6435   6.6435
     7.3783   7.3783

          k = 0.0000-0.2579 0.0000 ( 36445 PWs)   bands (ev):

   -44.1457 -44.1457 -22.2820 -22.2820 -22.1823 -22.1823 -22.0694 -22.0693
    -7.6974  -7.1818  -7.1291  -6.8262  -6.4844  -5.3691  -5.0601  -4.8921
    -4.8071  -3.8569   0.4706   0.7761   0.8755   1.1359   1.5770   1.5912
     2.4028   2.4246   2.6982   2.8881   2.9867   3.0486   3.2984   3.3000
     3.3400   3.6504   3.6829   3.9728   4.1210   4.1484   4.1658   4.6416
     4.9743   5.4412   5.6968   5.7276   5.8974   6.1114   6.4515   6.7335
     6.9521   7.2180

          k = 0.0000-0.2579 0.1485 ( 36452 PWs)   bands (ev):

   -44.1457 -44.1457 -22.2820 -22.2820 -22.1823 -22.1823 -22.0694 -22.0693
    -7.6590  -7.3702  -6.9731  -6.8381  -6.3802  -5.6922  -4.9228  -4.8261
    -4.6803  -3.9721   0.5133   0.9030   0.9596   1.0866   1.1126   2.0048
     2.1474   2.4317   2.6261   2.9240   2.9810   3.1338   3.2378   3.2810
     3.6303   3.6604   3.7351   3.9201   4.1058   4.1571   4.1794   4.6515
     4.8407   5.0128   5.7937   5.9648   6.0500   6.0764   6.5684   6.7237
     6.7825   7.1959

          k = 0.0000-0.2579-0.2971 ( 36454 PWs)   bands (ev):

   -44.1457 -44.1457 -22.2820 -22.2820 -22.1823 -22.1823 -22.0694 -22.0694
    -7.5465  -7.5465  -6.8789  -6.8789  -6.0882  -6.0882  -4.8708  -4.8708
    -4.2775  -4.2775   0.7135   0.7135   0.9930   0.9930   1.4347   1.4347
     2.5132   2.5132   2.7093   2.7093   2.9619   2.9619   3.2589   3.2589
     3.7711   3.7711   3.9310   3.9310   4.1041   4.1041   4.4131   4.4131
     4.7013   4.7013   5.9422   5.9422   6.2870   6.2870   6.3948   6.3948
     7.0911   7.0911

          k = 1.5243 0.0000 0.0000 ( 36439 PWs)   bands (ev):

   -44.1444 -44.1444 -22.2753 -22.2753 -22.2160 -22.2160 -22.0653 -22.0652
    -7.2426  -6.8832  -6.7656  -6.6638  -6.2203  -5.2443  -5.1162  -4.7409
    -4.6582  -4.4280   0.5696   0.5795   0.6858   1.2845   1.5337   1.5758
     1.6378   1.7479   2.0205   2.1719   2.2501   2.2957   2.3486   3.1975
     3.3534   3.3835   3.4342   3.6314   3.6854   3.6907   3.8146   4.0933
     4.5085   5.2080   5.4319   5.7471   6.1260   6.6779   6.8302   6.8604
     7.2179   7.5701

          k = 1.5243 0.0000 0.1485 ( 36476 PWs)   bands (ev):

   -44.1444 -44.1444 -22.2753 -22.2753 -22.2160 -22.2160 -22.0653 -22.0652
    -7.2093  -6.9784  -6.7305  -6.6730  -6.0996  -5.5017  -4.9399  -4.7007
    -4.6748  -4.4524   0.5129   0.7227   0.7865   1.0507   1.4118   1.4428
     1.6038   1.7159   2.0454   2.0705   2.2981   2.6237   2.8472   3.1617
     3.3252   3.4131   3.4242   3.5986   3.6385   3.6916   3.7076   4.1293
     4.2092   4.5615   5.9728   6.1361   6.2161   6.5770   6.8251   6.9018
     7.0649   7.4944

          k = 1.5243 0.0000-0.2971 ( 36508 PWs)   bands (ev):

   -44.1444 -44.1444 -22.2753 -22.2753 -22.2160 -22.2160 -22.0652 -22.0652
    -7.1144  -7.1144  -6.6968  -6.6968  -5.8255  -5.8255  -4.8012  -4.8012
    -4.5410  -4.5410   0.6146   0.6146   1.0703   1.0703   1.1426   1.1426
     1.6350   1.6350   2.0303   2.0303   2.8166   2.8166   3.1455   3.1455
     3.3229   3.3229   3.4066   3.4066   3.6751   3.6751   3.7895   3.7895
     4.1701   4.1701   6.2180   6.2180   6.6473   6.6473   6.7773   6.7773
     7.1350   7.1351

          k =-0.2541-0.4514 0.0000 ( 36444 PWs)   bands (ev):

   -44.1453 -44.1453 -22.2801 -22.2801 -22.1922 -22.1922 -22.0682 -22.0681
    -7.5664  -7.0728  -7.0445  -6.7944  -6.4438  -5.3277  -5.0708  -4.8515
    -4.7585  -4.0006   0.5571   0.9232   1.1644   1.3083   1.4044   1.5291
     2.0028   2.0612   2.1845   2.3419   2.4436   3.1837   3.2884   3.3529
     3.5775   3.6018   3.7531   3.7962   3.8692   4.0653   4.1404   4.1497
     4.4128   4.5488   5.9417   6.0325   6.3830   6.5451   6.7575   6.8511
     6.8688   6.9993

          k =-0.2541-0.4514 0.1485 ( 36461 PWs)   bands (ev):

   -44.1453 -44.1453 -22.2801 -22.2801 -22.1922 -22.1922 -22.0682 -22.0681
    -7.5291  -7.2521  -6.9135  -6.8063  -6.3243  -5.6364  -4.9209  -4.7836
    -4.6767  -4.0905   0.5849   0.9789   1.0295   1.2827   1.3334   1.6116
     1.8689   2.2854   2.3522   2.4249   2.4995   2.8843   3.2714   3.2886
     3.4004   3.5486   3.7441   3.8497   3.8622   3.9811   4.1304   4.1570
     4.7216   4.8899   5.7745   5.9339   6.1819   6.3053   6.6999   6.7421
     7.1302   7.2727

          k =-0.2541-0.4514-0.2971 ( 36490 PWs)   bands (ev):

   -44.1453 -44.1453 -22.2801 -22.2801 -22.1922 -22.1922 -22.0682 -22.0682
    -7.4203  -7.4203  -6.8420  -6.8420  -6.0220  -6.0220  -4.8450  -4.8450
    -4.3387  -4.3387   0.7225   0.7225   1.2710   1.2710   1.3083   1.3083
     2.2851   2.2851   2.3974   2.3974   2.6731   2.6731   3.2196   3.2196
     3.2909   3.2909   3.7998   3.7998   3.9897   3.9897   4.1368   4.1368
     5.1400   5.1400   5.6460   5.6460   6.0595   6.0595   6.7071   6.7071
     7.3591   7.3592

          k = 0.0000-0.3869 0.0000 ( 36477 PWs)   bands (ev):

   -44.1457 -44.1457 -22.2820 -22.2820 -22.1823 -22.1823 -22.0694 -22.0693
    -7.6846  -7.1797  -7.1171  -6.8389  -6.5091  -5.3696  -5.0714  -4.8944
    -4.8001  -3.8584   0.4941   0.7897   1.0314   1.1993   1.6006   1.6577
     2.4092   2.4268   2.7174   2.8848   2.9795   3.0446   3.0692   3.0939
     3.4440   3.6233   3.6862   3.9386   3.9571   4.0121   4.1657   4.6431
     4.9529   5.4083   5.7455   5.7707   5.9412   6.1520   6.5164   6.6348
     6.9529   7.1926

          k = 0.0000-0.3869 0.1485 ( 36452 PWs)   bands (ev):

   -44.1457 -44.1457 -22.2820 -22.2820 -22.1823 -22.1823 -22.0694 -22.0693
    -7.6463  -7.3595  -6.9766  -6.8514  -6.3963  -5.6932  -4.9409  -4.8230
    -4.6734  -3.9721   0.5285   0.9907   1.0068   1.1544   1.2059   2.0280
     2.1811   2.4387   2.6397   2.9228   2.9604   2.9750   3.0117   3.3142
     3.5966   3.6690   3.7115   3.9095   4.0165   4.0576   4.1005   4.6527
     4.8294   5.0067   5.8340   5.9755   6.0791   6.0834   6.5206   6.7570
     6.7847   7.1650

          k = 0.0000-0.3869-0.2971 ( 36454 PWs)   bands (ev):

   -44.1457 -44.1457 -22.2820 -22.2820 -22.1823 -22.1823 -22.0694 -22.0694
    -7.5342  -7.5342  -6.8911  -6.8911  -6.0934  -6.0934  -4.8778  -4.8778
    -4.2745  -4.2745   0.7216   0.7216   1.1345   1.1345   1.4574   1.4574
     2.5223   2.5223   2.6972   2.6972   2.9587   2.9587   3.0719   3.0719
     3.7919   3.7919   3.9154   3.9154   3.9886   3.9886   4.3979   4.3979
     4.6997   4.6997   5.9211   5.9211   6.3147   6.3147   6.4000   6.4000
     7.0654   7.0654

          k =-2.0325 0.0000 0.0000 ( 36452 PWs)   bands (ev):

   -44.1457 -44.1457 -22.2820 -22.2820 -22.1823 -22.1823 -22.0694 -22.0693
    -7.6790  -7.1789  -7.1123  -6.8435  -6.5199  -5.3699  -5.0762  -4.8943
    -4.7980  -3.8590   0.4988   0.7955   1.1451   1.1928   1.6099   1.6992
     2.4119   2.4273   2.7258   2.8834   2.9010   2.9649   2.9763   3.1193
     3.5498   3.6118   3.7037   3.8162   3.9493   3.9514   4.1655   4.6437
     4.9441   5.3989   5.7530   5.8038   5.9634   6.1643   6.5369   6.5841
     6.9532   7.1850

          k =-2.0325 0.0000 0.1485 ( 36456 PWs)   bands (ev):

   -44.1457 -44.1457 -22.2820 -22.2820 -22.1823 -22.1823 -22.0694 -22.0693
    -7.6408  -7.3550  -6.9785  -6.8566  -6.4031  -5.6935  -4.9478  -4.8222
    -4.6708  -3.9721   0.5301   1.0022   1.0390   1.1974   1.2704   2.0384
     2.1957   2.4417   2.6454   2.8458   2.8985   2.9225   2.9723   3.3631
     3.5762   3.7016   3.7110   3.8907   3.9526   4.0082   4.0982   4.6533
     4.8248   5.0057   5.8553   5.9800   6.0773   6.0907   6.4975   6.7653
     6.7856   7.1540

          k =-2.0325 0.0000-0.2971 ( 36460 PWs)   bands (ev):

   -44.1457 -44.1457 -22.2820 -22.2820 -22.1823 -22.1823 -22.0694 -22.0694
    -7.5290  -7.5290  -6.8964  -6.8964  -6.0955  -6.0955  -4.8807  -4.8807
    -4.2732  -4.2732   0.7211   0.7211   1.2100   1.2100   1.4677   1.4677
     2.5262   2.5262   2.6587   2.6587   2.9573   2.9573   3.0104   3.0104
     3.8113   3.8113   3.9089   3.9089   3.9395   3.9395   4.3922   4.3922
     4.6991   4.6991   5.9103   5.9103   6.3234   6.3234   6.4022   6.4022
     7.0531   7.0531

     the Fermi energy is     5.3976 ev

!    total energy              =   -4240.94816790 Ry

     total all-electron energy =   -150287.641863 Ry
     estimated scf accuracy    <          4.9E-11 Ry
     smearing contrib. (-TS)   =      -0.00002180 Ry
     internal energy E=F+TS    =   -4240.94814610 Ry

     The total energy is F=E-TS. E is the sum of the following terms:
     one-electron contribution =    -165.82292029 Ry
     hartree contribution      =     116.38782639 Ry
     xc contribution           =    -201.44906462 Ry
     ewald contribution        =    -222.55116584 Ry
     one-center paw contrib.   =   -3767.51282174 Ry

     convergence has been achieved in  16 iterations

     Forces acting on atoms (cartesian axes, Ry/au):

     atom    1 type  1   force =     0.00000000   -0.01121448    0.00000000
     atom    2 type  1   force =     0.00000000    0.01121448    0.00000000
     atom    3 type  2   force =     0.00000000    0.00042748    0.00000000
     atom    4 type  2   force =     0.00000000   -0.00042748    0.00000000
     atom    5 type  2   force =     0.00000000    0.00236052    0.00049973
     atom    6 type  2   force =     0.00000000   -0.00236052   -0.00049973
     atom    7 type  2   force =     0.00000000    0.00236052   -0.00049973
     atom    8 type  2   force =     0.00000000   -0.00236052    0.00049973
     atom    9 type  2   force =     0.00000000    0.01348739    0.01273340
     atom   10 type  2   force =     0.00000000   -0.01348739   -0.01273340
     atom   11 type  2   force =     0.00000000    0.01348739   -0.01273340
     atom   12 type  2   force =     0.00000000   -0.01348739    0.01273340

     Total force =     0.040637     Total SCF correction =     0.000011


     Computing stress (Cartesian axis) and pressure

          total   stress  (Ry/bohr**3)                   (kbar)     P=       -3.22
  -0.00001885   0.00000000   0.00000000           -2.77        0.00        0.00
   0.00000000  -0.00001990   0.00000000            0.00       -2.93        0.00
   0.00000000   0.00000000  -0.00002687            0.00        0.00       -3.95

 
     init_run     :     18.94s CPU     19.45s WALL (       1 calls)
     electrons    :    875.06s CPU    885.58s WALL (       1 calls)
     forces       :      6.72s CPU      6.94s WALL (       1 calls)
     stress       :     43.90s CPU     44.54s WALL (       1 calls)

     Called by init_run:
     wfcinit      :     14.36s CPU     14.54s WALL (       1 calls)
     potinit      :      1.43s CPU      1.49s WALL (       1 calls)
     hinit0       :      1.83s CPU      1.88s WALL (       1 calls)

     Called by electrons:
     c_bands      :    732.90s CPU    736.37s WALL (      17 calls)
     sum_band     :    118.63s CPU    122.47s WALL (      17 calls)
     v_of_rho     :      5.14s CPU      5.40s WALL (      17 calls)
     newd         :     13.19s CPU     16.32s WALL (      17 calls)
     PAW_pot      :      5.40s CPU      5.41s WALL (      17 calls)
     mix_rho      :      0.76s CPU      0.78s WALL (      17 calls)

     Called by c_bands:
     init_us_2    :     10.44s CPU     10.49s WALL (    2331 calls)
     cegterg      :    662.76s CPU    665.71s WALL (    1071 calls)

     Called by *egterg:
     cdiaghg      :     26.56s CPU     26.64s WALL (    7815 calls)
     h_psi        :    501.21s CPU    503.93s WALL (    7941 calls)
     s_psi        :     42.66s CPU     42.74s WALL (    7941 calls)
     g_psi        :      1.85s CPU      1.86s WALL (    6807 calls)

     Called by h_psi:
     h_psi:calbec :     36.93s CPU     37.01s WALL (    7941 calls)
     vloc_psi     :    418.93s CPU    421.39s WALL (    7941 calls)
     add_vuspsi   :     42.56s CPU     42.64s WALL (    7941 calls)

     General routines
     calbec       :     48.82s CPU     48.93s WALL (    9327 calls)
     fft          :      3.15s CPU      3.28s WALL (     245 calls)
     ffts         :      0.07s CPU      0.08s WALL (      34 calls)
     fftw         :    386.45s CPU    388.65s WALL (  400200 calls)
     interpolate  :      0.29s CPU      0.29s WALL (      17 calls)
 
     Parallel routines
 
     PWSCF        :  15m44.87s CPU  15m56.84s WALL

 
   This run was terminated on:  15:33:42  19Nov2021            

=------------------------------------------------------------------------------=
   JOB DONE.
=------------------------------------------------------------------------------=
