
     Program PWSCF v.6.8 starts on 19Nov2021 at 15:29:58 

     This program is part of the open-source Quantum ESPRESSO suite
     for quantum simulation of materials; please cite
         "P. Giannozzi et al., J. Phys.:Condens. Matter 21 395502 (2009);
         "P. Giannozzi et al., J. Phys.:Condens. Matter 29 465901 (2017);
         "P. Giannozzi et al., J. Chem. Phys. 152 154105 (2020);
          URL http://www.quantum-espresso.org", 
     in publications or presentations arising from this work. More details at
     http://www.quantum-espresso.org/quote

     Parallel version (MPI), running on    10 processors

     MPI processes distributed on     1 nodes
     R & G space division:  proc/nbgrp/npool/nimage =      10
     70681 MiB available memory on the printing compute node when the environment starts
 
     Waiting for input...
     Reading input from standard input

     Current dimensions of program PWSCF are:
     Max number of different atomic species (ntypx) = 10
     Max number of k-points (npk) =  40000
     Max angular momentum in pseudopotentials (lmaxx) =  4
     file Zr.pbe-spn-kjpaw_psl.1.0.0.UPF: wavefunction(s)  4S 4P renormalized
     file Te.pbe-n-kjpaw_psl.1.0.0.UPF: wavefunction(s)  5S 5P renormalized
     Message from routine setup:
     using ibrav=0 with symmetry is DISCOURAGED, use correct ibrav instead

     Subspace diagonalization in iterative solution of the eigenvalue problem:
     a serial algorithm will be used

 
     Parallelization info
     --------------------
     sticks:   dense  smooth     PW     G-vecs:    dense   smooth      PW
     Min         734     293     87               115340    29174    4753
     Max         735     295     88               115345    29176    4760
     Sum        7345    2937    873              1153415   291749   47557
 
     Using Slab Decomposition
 


     bravais-lattice index     =            0
     lattice parameter (alat)  =      15.5510  a.u.
     unit-cell volume          =    3018.5011 (a.u.)^3
     number of atoms/cell      =           12
     number of atomic types    =            2
     number of electrons       =        84.00
     number of Kohn-Sham states=           50
     kinetic-energy cutoff     =      80.0000  Ry
     charge density cutoff     =     800.0000  Ry
     scf convergence threshold =      1.0E-10
     mixing beta               =       0.7000
     number of iterations used =            8  plain     mixing
     Exchange-correlation= SLA  PW   PBX  PBC
                           (   1   4   3   4   0   0   0)

     celldm(1)=  15.551040  celldm(2)=   0.000000  celldm(3)=   0.000000
     celldm(4)=   0.000000  celldm(5)=   0.000000  celldm(6)=   0.000000

     crystal axes: (cart. coord. in units of alat)
               a(1) = (   0.246007  -0.969268   0.000000 )  
               a(2) = (   0.246007   0.969268   0.000000 )  
               a(3) = (   0.000000   0.000000   1.683031 )  

     reciprocal axes: (cart. coord. in units 2 pi/alat)
               b(1) = (  2.032465 -0.515853  0.000000 )  
               b(2) = (  2.032465  0.515853  0.000000 )  
               b(3) = (  0.000000  0.000000  0.594166 )  


     PseudoPot. # 1 for Zr read from file:
     pseudo/Zr.pbe-spn-kjpaw_psl.1.0.0.UPF
     MD5 check sum: 02112c41713a0468aff2bb39ef194e36
     Pseudo is Projector augmented-wave + core cor, Zval = 12.0
     Generated using &quot;atomic&quot; code by A. Dal Corso  v.6.2.2
     Shape of augmentation charge: PSQ
     Using radial grid of 1225 points,  6 beta functions with: 
                l(1) =   0
                l(2) =   0
                l(3) =   1
                l(4) =   1
                l(5) =   2
                l(6) =   2
     Q(r) pseudized with 0 coefficients 


     PseudoPot. # 2 for Te read from file:
     pseudo/Te.pbe-n-kjpaw_psl.1.0.0.UPF
     MD5 check sum: 66247bff2bd9dbf220fbb0bf5ab56e9d
     Pseudo is Projector augmented-wave + core cor, Zval =  6.0
     Generated using &quot;atomic&quot; code by A. Dal Corso  v.6.3
     Shape of augmentation charge: PSQ
     Using radial grid of 1245 points,  6 beta functions with: 
                l(1) =   0
                l(2) =   0
                l(3) =   1
                l(4) =   1
                l(5) =   2
                l(6) =   2
     Q(r) pseudized with 0 coefficients 


     atomic species   valence    mass     pseudopotential
        Zr            12.00    91.22000     Zr( 1.00)
        Te             6.00   127.60000     Te( 1.00)

      8 Sym. Ops., with inversion, found ( 4 have fractional translation)



   Cartesian axes

     site n.     atom                  positions (alat units)
         1           Zr  tau(   1) = (   0.0000000   0.6145831   0.4207578  )
         2           Zr  tau(   2) = (   0.2460067   0.3546851   1.2622733  )
         3           Te  tau(   3) = (   0.2460067   0.3344288   0.4207578  )
         4           Te  tau(   4) = (   0.0000000   0.6348394   1.2622733  )
         5           Te  tau(   5) = (   0.2460067   0.8057401   0.2492745  )
         6           Te  tau(   6) = (   0.0000000   0.1635280   1.4337566  )
         7           Te  tau(   7) = (   0.2460067   0.8057401   0.5922411  )
         8           Te  tau(   8) = (   0.0000000   0.1635280   1.0907900  )
         9           Te  tau(   9) = (   0.0000000   0.3991680   0.7158808  )
        10           Te  tau(  10) = (   0.2460067   0.5701001   0.9671503  )
        11           Te  tau(  11) = (   0.0000000   0.3991680   0.1256348  )
        12           Te  tau(  12) = (   0.2460067   0.5701001   1.5573963  )

     number of k points=    63  Methfessel-Paxton smearing, width (Ry)=  0.0030
                       cart. coord. in units 2pi/alat
        k(    1) = (   0.0000000   0.0000000   0.0000000), wk =   0.0078125
        k(    2) = (   0.0000000   0.0000000   0.1485415), wk =   0.0156250
        k(    3) = (   0.0000000   0.0000000  -0.2970830), wk =   0.0078125
        k(    4) = (   0.2540581   0.0644816   0.0000000), wk =   0.0312500
        k(    5) = (   0.2540581   0.0644816   0.1485415), wk =   0.0625000
        k(    6) = (   0.2540581   0.0644816  -0.2970830), wk =   0.0312500
        k(    7) = (   0.5081162   0.1289633   0.0000000), wk =   0.0312500
        k(    8) = (   0.5081162   0.1289633   0.1485415), wk =   0.0625000
        k(    9) = (   0.5081162   0.1289633  -0.2970830), wk =   0.0312500
        k(   10) = (   0.7621743   0.1934449   0.0000000), wk =   0.0312500
        k(   11) = (   0.7621743   0.1934449   0.1485415), wk =   0.0625000
        k(   12) = (   0.7621743   0.1934449  -0.2970830), wk =   0.0312500
        k(   13) = (  -1.0162324  -0.2579266   0.0000000), wk =   0.0156250
        k(   14) = (  -1.0162324  -0.2579266   0.1485415), wk =   0.0312500
        k(   15) = (  -1.0162324  -0.2579266  -0.2970830), wk =   0.0156250
        k(   16) = (   0.5081162   0.0000000   0.0000000), wk =   0.0156250
        k(   17) = (   0.5081162   0.0000000   0.1485415), wk =   0.0312500
        k(   18) = (   0.5081162   0.0000000  -0.2970830), wk =   0.0156250
        k(   19) = (   0.7621743   0.0644816   0.0000000), wk =   0.0312500
        k(   20) = (   0.7621743   0.0644816   0.1485415), wk =   0.0625000
        k(   21) = (   0.7621743   0.0644816  -0.2970830), wk =   0.0312500
        k(   22) = (   1.0162324   0.1289633   0.0000000), wk =   0.0312500
        k(   23) = (   1.0162324   0.1289633   0.1485415), wk =   0.0625000
        k(   24) = (   1.0162324   0.1289633  -0.2970830), wk =   0.0312500
        k(   25) = (  -0.7621743  -0.3224082   0.0000000), wk =   0.0312500
        k(   26) = (  -0.7621743  -0.3224082   0.1485415), wk =   0.0625000
        k(   27) = (  -0.7621743  -0.3224082  -0.2970830), wk =   0.0312500
        k(   28) = (  -0.5081162  -0.2579266   0.0000000), wk =   0.0312500
        k(   29) = (  -0.5081162  -0.2579266   0.1485415), wk =   0.0625000
        k(   30) = (  -0.5081162  -0.2579266  -0.2970830), wk =   0.0312500
        k(   31) = (  -0.2540581  -0.1934449   0.0000000), wk =   0.0312500
        k(   32) = (  -0.2540581  -0.1934449   0.1485415), wk =   0.0625000
        k(   33) = (  -0.2540581  -0.1934449  -0.2970830), wk =   0.0312500
        k(   34) = (   0.0000000  -0.1289633   0.0000000), wk =   0.0156250
        k(   35) = (   0.0000000  -0.1289633   0.1485415), wk =   0.0312500
        k(   36) = (   0.0000000  -0.1289633  -0.2970830), wk =   0.0156250
        k(   37) = (   1.0162324   0.0000000   0.0000000), wk =   0.0156250
        k(   38) = (   1.0162324   0.0000000   0.1485415), wk =   0.0312500
        k(   39) = (   1.0162324   0.0000000  -0.2970830), wk =   0.0156250
        k(   40) = (   1.2702905   0.0644816   0.0000000), wk =   0.0312500
        k(   41) = (   1.2702905   0.0644816   0.1485415), wk =   0.0625000
        k(   42) = (   1.2702905   0.0644816  -0.2970830), wk =   0.0312500
        k(   43) = (  -0.5081162  -0.3868899   0.0000000), wk =   0.0312500
        k(   44) = (  -0.5081162  -0.3868899   0.1485415), wk =   0.0625000
        k(   45) = (  -0.5081162  -0.3868899  -0.2970830), wk =   0.0312500
        k(   46) = (  -0.2540581  -0.3224082   0.0000000), wk =   0.0312500
        k(   47) = (  -0.2540581  -0.3224082   0.1485415), wk =   0.0625000
        k(   48) = (  -0.2540581  -0.3224082  -0.2970830), wk =   0.0312500
        k(   49) = (   0.0000000  -0.2579266   0.0000000), wk =   0.0156250
        k(   50) = (   0.0000000  -0.2579266   0.1485415), wk =   0.0312500
        k(   51) = (   0.0000000  -0.2579266  -0.2970830), wk =   0.0156250
        k(   52) = (   1.5243485   0.0000000   0.0000000), wk =   0.0156250
        k(   53) = (   1.5243485   0.0000000   0.1485415), wk =   0.0312500
        k(   54) = (   1.5243485   0.0000000  -0.2970830), wk =   0.0156250
        k(   55) = (  -0.2540581  -0.4513715   0.0000000), wk =   0.0312500
        k(   56) = (  -0.2540581  -0.4513715   0.1485415), wk =   0.0625000
        k(   57) = (  -0.2540581  -0.4513715  -0.2970830), wk =   0.0312500
        k(   58) = (   0.0000000  -0.3868899   0.0000000), wk =   0.0156250
        k(   59) = (   0.0000000  -0.3868899   0.1485415), wk =   0.0312500
        k(   60) = (   0.0000000  -0.3868899  -0.2970830), wk =   0.0156250
        k(   61) = (  -2.0324647   0.0000000   0.0000000), wk =   0.0078125
        k(   62) = (  -2.0324647   0.0000000   0.1485415), wk =   0.0156250
        k(   63) = (  -2.0324647   0.0000000  -0.2970830), wk =   0.0078125

     Dense  grid:  1153415 G-vectors     FFT dimensions: ( 144, 144, 240)

     Smooth grid:   291749 G-vectors     FFT dimensions: (  90,  90, 150)

     Estimated max dynamical RAM per process >     657.19 MB

     Estimated total dynamical RAM >       6.42 GB

     Initial potential from superposition of free atoms

     starting charge   83.99353, renormalised to   84.00000
     Starting wfcs are   66 randomized atomic wfcs
     Checking if some PAW data can be deallocated... 

     total cpu time spent up to now is       19.1 secs

     Self-consistent Calculation

     iteration #  1     ecut=    80.00 Ry     beta= 0.70
     Davidson diagonalization with overlap
     ethr =  1.00E-02,  avg # of iterations =  2.0

     Threshold (ethr) on eigenvalues was too large:
     Diagonalizing with lowered threshold

     Davidson diagonalization with overlap
     ethr =  3.63E-04,  avg # of iterations =  4.1

     total cpu time spent up to now is      103.2 secs

     total energy              =   -4240.70277650 Ry
     estimated scf accuracy    <       0.42323305 Ry

     iteration #  2     ecut=    80.00 Ry     beta= 0.70
     Davidson diagonalization with overlap
     ethr =  5.04E-04,  avg # of iterations =  7.3

     total cpu time spent up to now is      164.0 secs

     total energy              =   -4240.61306123 Ry
     estimated scf accuracy    <       2.17705284 Ry

     iteration #  3     ecut=    80.00 Ry     beta= 0.70
     Davidson diagonalization with overlap
     ethr =  5.04E-04,  avg # of iterations =  5.2

     total cpu time spent up to now is      215.7 secs

     total energy              =   -4240.89890782 Ry
     estimated scf accuracy    <       0.02353958 Ry

     iteration #  4     ecut=    80.00 Ry     beta= 0.70
     Davidson diagonalization with overlap
     c_bands:  2 eigenvalues not converged
     c_bands:  1 eigenvalues not converged
     c_bands:  1 eigenvalues not converged
     c_bands:  2 eigenvalues not converged
     c_bands:  1 eigenvalues not converged
     ethr =  2.80E-05,  avg # of iterations = 15.7

     total cpu time spent up to now is      303.3 secs

     total energy              =   -4240.91963681 Ry
     estimated scf accuracy    <       0.08921872 Ry

     iteration #  5     ecut=    80.00 Ry     beta= 0.70
     Davidson diagonalization with overlap
     ethr =  2.80E-05,  avg # of iterations =  3.9

     total cpu time spent up to now is      346.7 secs

     total energy              =   -4240.92087601 Ry
     estimated scf accuracy    <       0.02229310 Ry

     iteration #  6     ecut=    80.00 Ry     beta= 0.70
     Davidson diagonalization with overlap
     ethr =  2.65E-05,  avg # of iterations =  3.0

     total cpu time spent up to now is      386.1 secs

     total energy              =   -4240.92246395 Ry
     estimated scf accuracy    <       0.00240978 Ry

     iteration #  7     ecut=    80.00 Ry     beta= 0.70
     Davidson diagonalization with overlap
     c_bands:  1 eigenvalues not converged
     c_bands:  1 eigenvalues not converged
     c_bands:  2 eigenvalues not converged
     c_bands:  1 eigenvalues not converged
     c_bands:  1 eigenvalues not converged
     c_bands:  2 eigenvalues not converged
     c_bands:  2 eigenvalues not converged
     c_bands:  1 eigenvalues not converged
     c_bands:  2 eigenvalues not converged
     c_bands:  1 eigenvalues not converged
     c_bands:  1 eigenvalues not converged
     c_bands:  1 eigenvalues not converged
     c_bands:  1 eigenvalues not converged
     ethr =  2.87E-06,  avg # of iterations = 15.1

     total cpu time spent up to now is      461.0 secs

     total energy              =   -4240.92396729 Ry
     estimated scf accuracy    <       0.00271549 Ry

     iteration #  8     ecut=    80.00 Ry     beta= 0.70
     Davidson diagonalization with overlap
     ethr =  2.87E-06,  avg # of iterations =  2.4

     total cpu time spent up to now is      498.2 secs

     total energy              =   -4240.92397225 Ry
     estimated scf accuracy    <       0.00058763 Ry

     iteration #  9     ecut=    80.00 Ry     beta= 0.70
     Davidson diagonalization with overlap
     ethr =  7.00E-07,  avg # of iterations =  5.8

     total cpu time spent up to now is      543.2 secs

     total energy              =   -4240.92408865 Ry
     estimated scf accuracy    <       0.00000834 Ry

     iteration # 10     ecut=    80.00 Ry     beta= 0.70
     Davidson diagonalization with overlap
     c_bands:  1 eigenvalues not converged
     c_bands:  1 eigenvalues not converged
     c_bands:  1 eigenvalues not converged
     ethr =  9.93E-09,  avg # of iterations = 11.7

     total cpu time spent up to now is      620.2 secs

     total energy              =   -4240.92411414 Ry
     estimated scf accuracy    <       0.00002733 Ry

     iteration # 11     ecut=    80.00 Ry     beta= 0.70
     Davidson diagonalization with overlap
     c_bands:  1 eigenvalues not converged
     c_bands:  1 eigenvalues not converged
     ethr =  9.93E-09,  avg # of iterations =  4.1

     total cpu time spent up to now is      664.1 secs

     total energy              =   -4240.92411681 Ry
     estimated scf accuracy    <       0.00000102 Ry

     iteration # 12     ecut=    80.00 Ry     beta= 0.70
     Davidson diagonalization with overlap
     c_bands:  1 eigenvalues not converged
     ethr =  1.22E-09,  avg # of iterations =  7.3

     total cpu time spent up to now is      720.3 secs

     total energy              =   -4240.92411733 Ry
     estimated scf accuracy    <       0.00000047 Ry

     iteration # 13     ecut=    80.00 Ry     beta= 0.70
     Davidson diagonalization with overlap
     ethr =  5.65E-10,  avg # of iterations =  2.2

     total cpu time spent up to now is      757.8 secs

     total energy              =   -4240.92411738 Ry
     estimated scf accuracy    <       0.00000003 Ry

     iteration # 14     ecut=    80.00 Ry     beta= 0.70
     Davidson diagonalization with overlap
     ethr =  3.53E-11,  avg # of iterations =  8.4

     total cpu time spent up to now is      822.2 secs

     total energy              =   -4240.92411740 Ry
     estimated scf accuracy    <       0.00000005 Ry

     iteration # 15     ecut=    80.00 Ry     beta= 0.70
     Davidson diagonalization with overlap
     ethr =  3.53E-11,  avg # of iterations =  2.4

     total cpu time spent up to now is      860.8 secs

     total energy              =   -4240.92411740 Ry
     estimated scf accuracy    <          6.5E-09 Ry

     iteration # 16     ecut=    80.00 Ry     beta= 0.70
     Davidson diagonalization with overlap
     ethr =  7.79E-12,  avg # of iterations =  6.0

     total cpu time spent up to now is      912.5 secs

     total energy              =   -4240.92411740 Ry
     estimated scf accuracy    <          2.7E-09 Ry

     iteration # 17     ecut=    80.00 Ry     beta= 0.70
     Davidson diagonalization with overlap
     ethr =  3.19E-12,  avg # of iterations =  1.1

     total cpu time spent up to now is      947.0 secs

     total energy              =   -4240.92411740 Ry
     estimated scf accuracy    <          1.2E-09 Ry

     iteration # 18     ecut=    80.00 Ry     beta= 0.70
     Davidson diagonalization with overlap
     ethr =  1.47E-12,  avg # of iterations =  2.2

     total cpu time spent up to now is      984.7 secs

     total energy              =   -4240.92411740 Ry
     estimated scf accuracy    <          2.8E-10 Ry

     iteration # 19     ecut=    80.00 Ry     beta= 0.70
     Davidson diagonalization with overlap
     ethr =  3.31E-13,  avg # of iterations =  6.2

     total cpu time spent up to now is     1038.0 secs

     total energy              =   -4240.92411740 Ry
     estimated scf accuracy    <          1.5E-10 Ry

     iteration # 20     ecut=    80.00 Ry     beta= 0.70
     Davidson diagonalization with overlap
     ethr =  1.76E-13,  avg # of iterations =  2.1

     total cpu time spent up to now is     1074.9 secs

     End of self-consistent calculation

          k = 0.0000 0.0000 0.0000 ( 36359 PWs)   bands (ev):

   -44.1715 -44.1715 -22.3224 -22.3224 -22.2116 -22.2116 -22.0907 -22.0906
    -7.6237  -7.2192  -6.7647  -6.7469  -6.6856  -5.2126  -5.1955  -4.9452
    -4.8856  -3.8641   0.4916   0.6296   0.8192   1.0211   1.4598   1.6508
     2.3891   2.5316   2.5816   2.9875   3.0191   3.0771   3.2873   3.4648
     3.4947   3.5052   3.8665   4.0229   4.0341   4.2635   4.3071   4.6162
     5.3471   5.5089   5.5092   5.5498   5.8887   6.1047   6.4870   6.7348
     6.9288   7.3251

          k = 0.0000 0.0000 0.1485 ( 36415 PWs)   bands (ev):

   -44.1715 -44.1715 -22.3224 -22.3224 -22.2116 -22.2116 -22.0906 -22.0906
    -7.5861  -7.3211  -6.7811  -6.7693  -6.4758  -5.6679  -4.9731  -4.8995
    -4.6993  -3.9780   0.5196   0.6679   0.8981   1.0638   1.0833   2.0963
     2.1442   2.4083   2.5092   3.0320   3.0868   3.2028   3.2557   3.3392
     3.6383   3.6872   3.8097   3.9832   4.0186   4.2825   4.3179   4.6427
     5.0138   5.0763   5.6585   5.9164   6.0870   6.1269   6.5526   6.7456
     6.7744   7.3117

          k = 0.0000 0.0000-0.2971 ( 36410 PWs)   bands (ev):

   -44.1715 -44.1715 -22.3224 -22.3224 -22.2116 -22.2116 -22.0906 -22.0906
    -7.4777  -7.4777  -6.7792  -6.7792  -6.1060  -6.1060  -4.9336  -4.9336
    -4.2833  -4.2833   0.6751   0.6751   0.8179   0.8179   1.5188   1.5188
     2.4571   2.4571   2.7101   2.7101   3.1231   3.1231   3.2808   3.2808
     3.8012   3.8012   3.8476   3.8476   4.3029   4.3029   4.4407   4.4407
     4.7543   4.7543   5.9458   5.9458   6.2843   6.2843   6.3926   6.3926
     7.2091   7.2091

          k = 0.2541 0.0645 0.0000 ( 36396 PWs)   bands (ev):

   -44.1711 -44.1711 -22.3204 -22.3204 -22.2218 -22.2218 -22.0893 -22.0893
    -7.5099  -7.1250  -6.7201  -6.6500  -6.6319  -5.1885  -5.1712  -4.9057
    -4.8452  -3.9982   0.5796   0.7684   0.9583   1.1372   1.2108   1.5559
     1.9558   2.1723   2.2510   2.4995   2.6001   2.9296   3.5397   3.5866
     3.6217   3.6823   3.6915   3.8636   4.0608   4.1014   4.1740   4.2890
     4.4537   4.7905   5.6141   6.0201   6.3379   6.5380   6.5936   6.8118
     7.0112   7.1534

          k = 0.2541 0.0645 0.1485 ( 36423 PWs)   bands (ev):

   -44.1711 -44.1711 -22.3204 -22.3204 -22.2218 -22.2218 -22.0893 -22.0893
    -7.4733  -7.2184  -6.7271  -6.7216  -6.3933  -5.6122  -4.9492  -4.8613
    -4.7016  -4.0894   0.5958   0.8093   0.9663   1.0078   1.1405   1.6497
     1.8936   2.2441   2.5123   2.5873   2.6109   2.8941   3.2283   3.3141
     3.5839   3.7021   3.7770   3.8587   3.9692   4.0652   4.2111   4.2663
     4.7232   5.1308   5.7450   5.8194   6.2298   6.2885   6.5043   6.6450
     7.2528   7.2870

          k = 0.2541 0.0645-0.2971 ( 36436 PWs)   bands (ev):

   -44.1711 -44.1711 -22.3204 -22.3204 -22.2218 -22.2218 -22.0893 -22.0893
    -7.3681  -7.3681  -6.7315  -6.7315  -6.0312  -6.0312  -4.9008  -4.9008
    -4.3430  -4.3430   0.7138   0.7138   0.9152   0.9152   1.3542   1.3542
     2.2306   2.2306   2.6260   2.6260   2.7887   2.7887   3.0701   3.0701
     3.5556   3.5556   3.8231   3.8231   3.9755   3.9755   4.2601   4.2601
     5.2670   5.2670   5.7342   5.7342   6.0330   6.0330   6.5008   6.5008
     7.4163   7.4164

          k = 0.5081 0.1290 0.0000 ( 36499 PWs)   bands (ev):

   -44.1702 -44.1702 -22.3157 -22.3157 -22.2464 -22.2464 -22.0862 -22.0861
    -7.1933  -6.8991  -6.5919  -6.4516  -6.3739  -5.1659  -5.1468  -4.8009
    -4.7458  -4.4049   0.4511   0.7618   0.8567   1.1437   1.3624   1.4702
     1.6380   1.7554   1.9593   2.1733   2.2042   2.2591   2.6598   3.1302
     3.2796   3.3778   3.4154   3.5339   3.7686   3.8141   4.0232   4.1483
     4.7857   5.2917   5.4414   5.7805   5.8562   6.5080   6.5244   6.7868
     7.3289   7.5305

          k = 0.5081 0.1290 0.1485 ( 36476 PWs)   bands (ev):

   -44.1702 -44.1702 -22.3157 -22.3157 -22.2464 -22.2464 -22.0862 -22.0861
    -7.1610  -6.9564  -6.5942  -6.5546  -6.1532  -5.4814  -4.9445  -4.7749
    -4.7130  -4.4377   0.4833   0.7754   0.9697   1.0997   1.1840   1.4119
     1.4636   1.6876   2.0411   2.0583   2.3432   2.6017   2.9220   3.1757
     3.2638   3.3773   3.4546   3.5578   3.6009   3.8289   3.8520   4.2075
     4.4649   4.6465   5.9457   6.0138   6.2246   6.5251   6.5643   6.6860
     7.1840   7.4764

          k = 0.5081 0.1290-0.2971 ( 36466 PWs)   bands (ev):

   -44.1702 -44.1702 -22.3157 -22.3157 -22.2464 -22.2464 -22.0861 -22.0861
    -7.0712  -7.0712  -6.5916  -6.5916  -5.8304  -5.8304  -4.8452  -4.8452
    -4.5455  -4.5455   0.6222   0.6222   1.1085   1.1085   1.2687   1.2687
     1.3660   1.3660   2.0583   2.0583   2.8223   2.8223   3.0656   3.0656
     3.2789   3.2789   3.5267   3.5267   3.7245   3.7245   3.8922   3.8922
     4.3009   4.3009   6.1653   6.1653   6.5210   6.5210   6.7494   6.7494
     7.0883   7.0883

          k = 0.7622 0.1934 0.0000 ( 36521 PWs)   bands (ev):

   -44.1692 -44.1692 -22.3108 -22.3108 -22.2709 -22.2709 -22.0830 -22.0829
    -6.8158  -6.7103  -6.3250  -6.0893  -5.9701  -5.2785  -5.2440  -5.0340
    -4.6803  -4.6452  -0.0089   0.3624   0.6672   1.1729   1.1846   1.2148
     1.4768   1.5791   1.8938   1.9430   2.2419   2.4950   2.5716   2.6865
     2.7251   3.2435   3.2588   3.3015   3.6366   3.6530   3.7803   3.9281
     4.0572   4.5827   5.7342   6.1094   6.1837   6.5785   6.6600   6.7429
     7.1515   7.6365

          k = 0.7622 0.1934 0.1485 ( 36503 PWs)   bands (ev):

   -44.1692 -44.1692 -22.3108 -22.3108 -22.2709 -22.2709 -22.0830 -22.0829
    -6.7995  -6.7240  -6.3175  -6.1968  -5.8125  -5.3975  -5.1776  -5.0565
    -4.6682  -4.6447   0.0773   0.4557   0.5646   0.9651   1.1695   1.2148
     1.4926   1.6028   1.7500   2.0920   2.1275   2.6290   2.6561   2.8085
     2.8577   3.1899   3.2749   3.3515   3.4347   3.6703   3.7111   3.8563
     4.0352   4.8968   5.2489   6.1770   6.4825   6.5099   6.6505   6.8670
     6.9300   7.3992

          k = 0.7622 0.1934-0.2971 ( 36522 PWs)   bands (ev):

   -44.1692 -44.1692 -22.3108 -22.3108 -22.2709 -22.2709 -22.0830 -22.0830
    -6.7604  -6.7604  -6.2829  -6.2829  -5.5931  -5.5931  -5.1113  -5.1113
    -4.6505  -4.6505   0.2979   0.2979   0.7479   0.7479   1.0558   1.0558
     1.5702   1.5702   1.9453   1.9453   2.3852   2.3852   2.8004   2.8004
     2.9858   2.9858   3.4451   3.4451   3.5515   3.5515   3.7567   3.7567
     4.2564   4.2564   5.9199   5.9199   6.3270   6.3270   6.7325   6.7325
     7.2458   7.2458

          k =-1.0162-0.2579 0.0000 ( 36506 PWs)   bands (ev):

   -44.1688 -44.1688 -22.3086 -22.3086 -22.2812 -22.2812 -22.0816 -22.0816
    -6.6738  -6.6535  -5.7812  -5.7761  -5.5964  -5.5906  -5.5524  -5.5355
    -4.6210  -4.6076   0.1122   0.1409   0.4704   0.4866   1.0105   1.0164
     1.4714   1.6763   2.2060   2.2977   2.3014   2.3059   2.8138   2.8502
     2.8610   3.0058   3.2526   3.2599   3.3253   3.4738   3.5862   3.7059
     3.8556   3.9116   6.2819   6.3188   6.3856   6.4726   6.8909   6.9286
     6.9457   6.9495

          k =-1.0162-0.2579 0.1485 ( 36506 PWs)   bands (ev):

   -44.1688 -44.1688 -22.3086 -22.3086 -22.2812 -22.2812 -22.0816 -22.0816
    -6.6703  -6.6559  -5.7735  -5.7695  -5.6574  -5.6513  -5.4887  -5.4790
    -4.6271  -4.6177   0.0358   0.0460   0.6665   0.6683   1.0448   1.0733
     1.4570   1.5522   1.9245   1.9672   2.3382   2.3467   2.7735   2.7961
     2.9405   2.9690   3.2195   3.2568   3.4930   3.5550   3.6900   3.7419
     4.1522   4.1793   5.8089   5.8120   6.3257   6.3942   6.7687   6.8108
     7.1740   7.1897

          k =-1.0162-0.2579-0.2971 ( 36528 PWs)   bands (ev):

   -44.1688 -44.1688 -22.3086 -22.3086 -22.2812 -22.2812 -22.0816 -22.0816
    -6.6625  -6.6625  -5.7597  -5.7597  -5.6938  -5.6938  -5.4497  -5.4497
    -4.6307  -4.6307  -0.0134  -0.0134   0.8646   0.8646   1.1459   1.1459
     1.4075   1.4075   1.6611   1.6611   2.3428   2.3428   2.8019   2.8019
     2.9226   2.9226   3.2642   3.2642   3.5436   3.5436   3.7588   3.7588
     4.7703   4.7703   5.1236   5.1236   6.2996   6.2996   6.7963   6.7963
     7.2282   7.2282

          k = 0.5081 0.0000 0.0000 ( 36503 PWs)   bands (ev):

   -44.1702 -44.1702 -22.3157 -22.3157 -22.2464 -22.2464 -22.0862 -22.0861
    -7.2000  -6.9029  -6.5833  -6.4459  -6.3756  -5.1670  -5.1427  -4.7979
    -4.7500  -4.4045   0.4485   0.7605   0.8639   1.1087   1.3583   1.4502
     1.6455   1.7576   1.9698   2.1374   2.2133   2.2257   2.6697   3.1105
     3.2804   3.3766   3.4695   3.5676   3.7764   3.7994   4.0547   4.1867
     4.7881   5.2978   5.4519   5.8067   5.8375   6.4686   6.4730   6.8220
     7.3612   7.5403

          k = 0.5081 0.0000 0.1485 ( 36453 PWs)   bands (ev):

   -44.1702 -44.1702 -22.3157 -22.3157 -22.2464 -22.2464 -22.0862 -22.0861
    -7.1677  -6.9618  -6.5852  -6.5482  -6.1544  -5.4825  -4.9373  -4.7762
    -4.7148  -4.4385   0.4802   0.7703   0.9765   1.1017   1.1523   1.3960
     1.4592   1.6873   2.0407   2.0525   2.3359   2.5776   2.9129   3.1629
     3.2565   3.4071   3.4875   3.5882   3.5911   3.8531   3.8622   4.2418
     4.4810   4.6510   5.9513   6.0290   6.2257   6.4736   6.5304   6.7153
     7.2114   7.4786

          k = 0.5081 0.0000-0.2971 ( 36452 PWs)   bands (ev):

   -44.1702 -44.1702 -22.3157 -22.3157 -22.2464 -22.2464 -22.0861 -22.0861
    -7.0776  -7.0776  -6.5832  -6.5832  -5.8320  -5.8320  -4.8409  -4.8409
    -4.5481  -4.5481   0.6171   0.6171   1.1098   1.1098   1.2622   1.2622
     1.3496   1.3496   2.0568   2.0568   2.8124   2.8124   3.0384   3.0384
     3.2720   3.2720   3.5927   3.5927   3.7269   3.7269   3.8955   3.8955
     4.3275   4.3275   6.1801   6.1801   6.4883   6.4883   6.7621   6.7621
     7.0905   7.0905

          k = 0.7622 0.0645 0.0000 ( 36505 PWs)   bands (ev):

   -44.1692 -44.1692 -22.3108 -22.3108 -22.2709 -22.2709 -22.0830 -22.0829
    -6.8256  -6.7091  -6.3152  -6.0879  -5.9736  -5.2788  -5.2378  -5.0339
    -4.6761  -4.6510  -0.0160   0.3745   0.6947   1.1637   1.2189   1.2316
     1.4301   1.5347   1.8680   1.9503   2.1809   2.4834   2.5600   2.6728
     2.6859   3.2904   3.3010   3.3128   3.5834   3.6730   3.8406   3.9570
     4.0748   4.6284   5.7333   6.1193   6.1483   6.5414   6.6983   6.7173
     7.1795   7.6355

          k = 0.7622 0.0645 0.1485 ( 36509 PWs)   bands (ev):

   -44.1692 -44.1692 -22.3108 -22.3108 -22.2709 -22.2709 -22.0830 -22.0829
    -6.8082  -6.7250  -6.3081  -6.1936  -5.8156  -5.3982  -5.1725  -5.0555
    -4.6653  -4.6489   0.0728   0.4642   0.5740   0.9916   1.1907   1.2048
     1.4506   1.6125   1.7517   2.0316   2.0492   2.6222   2.6542   2.7769
     2.8550   3.1879   3.3465   3.3735   3.3977   3.6914   3.7475   3.8738
     4.0858   4.8960   5.2771   6.1648   6.4782   6.4886   6.6677   6.8691
     6.9172   7.4172

          k = 0.7622 0.0645-0.2971 ( 36472 PWs)   bands (ev):

   -44.1692 -44.1692 -22.3108 -22.3108 -22.2709 -22.2709 -22.0830 -22.0830
    -6.7660  -6.7660  -6.2757  -6.2757  -5.5956  -5.5956  -5.1081  -5.1081
    -4.6510  -4.6510   0.2992   0.2992   0.7454   0.7454   1.0828   1.0828
     1.5676   1.5676   1.8867   1.8867   2.3525   2.3525   2.7859   2.7859
     2.9873   2.9873   3.5120   3.5120   3.5541   3.5541   3.7530   3.7530
     4.2812   4.2812   5.9431   5.9431   6.3280   6.3280   6.6974   6.6974
     7.2715   7.2715

          k = 1.0162 0.1290 0.0000 ( 36514 PWs)   bands (ev):

   -44.1688 -44.1688 -22.3086 -22.3086 -22.2812 -22.2812 -22.0816 -22.0816
    -6.6738  -6.6535  -5.7806  -5.7766  -5.5971  -5.5898  -5.5524  -5.5355
    -4.6210  -4.6076   0.1066   0.1465   0.4638   0.4934   1.0055   1.0235
     1.4762   1.6677   2.2111   2.2785   2.2985   2.3095   2.8183   2.8532
     2.8874   2.9987   3.2159   3.2893   3.3327   3.4747   3.5703   3.7100
     3.8663   3.8987   6.2839   6.3187   6.3810   6.4776   6.8970   6.9319
     6.9441   6.9518

          k = 1.0162 0.1290 0.1485 ( 36524 PWs)   bands (ev):

   -44.1688 -44.1688 -22.3086 -22.3086 -22.2812 -22.2812 -22.0816 -22.0816
    -6.6703  -6.6559  -5.7730  -5.7699  -5.6580  -5.6508  -5.4888  -5.4789
    -4.6271  -4.6177   0.0339   0.0475   0.6634   0.6721   1.0493   1.0703
     1.4606   1.5515   1.9175   1.9676   2.3297   2.3425   2.7364   2.8436
     2.9620   2.9773   3.1942   3.2590   3.4945   3.5818   3.6819   3.7132
     4.1592   4.1776   5.7959   5.8269   6.3233   6.3966   6.7753   6.8105
     7.1763   7.1874

          k = 1.0162 0.1290-0.2971 ( 36516 PWs)   bands (ev):

   -44.1688 -44.1688 -22.3086 -22.3086 -22.2812 -22.2812 -22.0816 -22.0816
    -6.6625  -6.6625  -5.7597  -5.7597  -5.6938  -5.6938  -5.4497  -5.4497
    -4.6307  -4.6307  -0.0136  -0.0136   0.8640   0.8640   1.1498   1.1498
     1.4055   1.4055   1.6615   1.6615   2.3323   2.3323   2.7845   2.7845
     2.9680   2.9680   3.2460   3.2460   3.5512   3.5512   3.7491   3.7491
     4.7705   4.7705   5.1253   5.1253   6.2994   6.2994   6.7991   6.7991
     7.2279   7.2279

          k =-0.7622-0.3224 0.0000 ( 36511 PWs)   bands (ev):

   -44.1692 -44.1692 -22.3108 -22.3108 -22.2709 -22.2709 -22.0830 -22.0829
    -6.8001  -6.7136  -6.3390  -6.0914  -5.9651  -5.2780  -5.2528  -5.0342
    -4.6840  -4.6394   0.0013   0.3458   0.6310   1.1605   1.1853   1.1946
     1.4974   1.6525   1.9346   1.9409   2.3338   2.5118   2.5911   2.7110
     2.7665   3.1475   3.2195   3.3357   3.6083   3.6500   3.7358   3.8853
     4.0307   4.5105   5.7362   6.1125   6.2230   6.5789   6.6349   6.8107
     7.1073   7.6412

          k =-0.7622-0.3224 0.1485 ( 36492 PWs)   bands (ev):

   -44.1692 -44.1692 -22.3108 -22.3108 -22.2709 -22.2709 -22.0830 -22.0829
    -6.7856  -6.7236  -6.3310  -6.2015  -5.8081  -5.3965  -5.1847  -5.0579
    -4.6705  -4.6406   0.0834   0.4453   0.5493   0.9374   1.1484   1.2229
     1.5522   1.5923   1.7361   2.1859   2.2416   2.6376   2.6653   2.8376
     2.8650   3.1723   3.2160   3.3321   3.4687   3.6201   3.6754   3.8237
     3.9524   4.8969   5.2110   6.1973   6.4687   6.5319   6.6481   6.8822
     6.9436   7.3691

          k =-0.7622-0.3224-0.2971 ( 36508 PWs)   bands (ev):

   -44.1692 -44.1692 -22.3108 -22.3108 -22.2709 -22.2709 -22.0830 -22.0830
    -6.7523  -6.7523  -6.2934  -6.2934  -5.5897  -5.5897  -5.1160  -5.1160
    -4.6498  -4.6498   0.2955   0.2955   0.7515   0.7515   1.0254   1.0254
     1.5717   1.5717   2.0179   2.0179   2.4441   2.4441   2.8257   2.8257
     2.9821   2.9821   3.3524   3.3524   3.5550   3.5550   3.7414   3.7414
     4.2219   4.2219   5.8889   5.8889   6.3238   6.3238   6.7930   6.7930
     7.2022   7.2022

          k =-0.5081-0.2579 0.0000 ( 36480 PWs)   bands (ev):

   -44.1702 -44.1702 -22.3157 -22.3157 -22.2464 -22.2464 -22.0862 -22.0861
    -7.1760  -6.8904  -6.6122  -6.4666  -6.3700  -5.1634  -5.1568  -4.8056
    -4.7384  -4.4058   0.4586   0.7587   0.8403   1.2429   1.3710   1.5234
     1.6266   1.7491   1.9419   2.2179   2.2358   2.3035   2.6398   3.1843
     3.2821   3.2917   3.3872   3.4276   3.7390   3.8236   3.9781   4.0699
     4.7777   5.2796   5.4039   5.7261   5.9041   6.6045   6.6442   6.7025
     7.2505   7.5303

          k =-0.5081-0.2579 0.1485 ( 36485 PWs)   bands (ev):

   -44.1702 -44.1702 -22.3157 -22.3157 -22.2464 -22.2464 -22.0862 -22.0861
    -7.1438  -6.9432  -6.6156  -6.5721  -6.1504  -5.4788  -4.9607  -4.7733
    -4.7082  -4.4360   0.4915   0.7825   0.9546   1.0951   1.2725   1.4306
     1.5010   1.6822   2.0475   2.0710   2.3574   2.6584   2.9414   3.2098
     3.2674   3.2821   3.4287   3.4532   3.6110   3.7929   3.8314   4.1334
     4.4179   4.6361   5.9163   5.9934   6.2222   6.6140   6.6426   6.6568
     7.1164   7.4749

          k =-0.5081-0.2579-0.2971 ( 36478 PWs)   bands (ev):

   -44.1702 -44.1702 -22.3157 -22.3157 -22.2464 -22.2464 -22.0861 -22.0861
    -7.0546  -7.0546  -6.6130  -6.6130  -5.8265  -5.8265  -4.8556  -4.8556
    -4.5396  -4.5396   0.6337   0.6337   1.1041   1.1041   1.2739   1.2739
     1.4245   1.4245   2.0618   2.0618   2.8468   2.8468   3.1379   3.1379
     3.2944   3.2944   3.3718   3.3718   3.7086   3.7086   3.8841   3.8841
     4.2338   4.2338   6.1272   6.1272   6.5904   6.5904   6.7287   6.7287
     7.0861   7.0861

          k =-0.2541-0.1934 0.0000 ( 36410 PWs)   bands (ev):

   -44.1711 -44.1711 -22.3204 -22.3204 -22.2218 -22.2218 -22.0893 -22.0893
    -7.4975  -7.1121  -6.7379  -6.6498  -6.6472  -5.1863  -5.1788  -4.9121
    -4.8374  -3.9992   0.6141   0.8450   0.9684   1.1587   1.2419   1.5577
     1.9749   2.1796   2.2687   2.4615   2.5738   3.0016   3.4022   3.4764
     3.5522   3.6847   3.7440   3.8732   4.0478   4.0617   4.1471   4.2570
     4.3957   4.7554   5.6594   6.0313   6.3663   6.5499   6.6006   6.8375
     7.0103   7.0817

          k =-0.2541-0.1934 0.1485 ( 36427 PWs)   bands (ev):

   -44.1711 -44.1711 -22.3204 -22.3204 -22.2218 -22.2218 -22.0893 -22.0893
    -7.4608  -7.2052  -6.7482  -6.7336  -6.3937  -5.6100  -4.9664  -4.8579
    -4.6951  -4.0891   0.6235   0.8734   0.9986   1.0503   1.1479   1.6667
     1.8929   2.2480   2.4812   2.5650   2.6355   2.9144   3.2231   3.3225
     3.4501   3.6053   3.7744   3.8703   3.9582   4.0515   4.1502   4.2181
     4.6993   5.1069   5.7535   5.8073   6.1942   6.3151   6.5902   6.6708
     7.2403   7.2484

          k =-0.2541-0.1934-0.2971 ( 36422 PWs)   bands (ev):

   -44.1711 -44.1711 -22.3204 -22.3204 -22.2218 -22.2218 -22.0893 -22.0893
    -7.3553  -7.3553  -6.7491  -6.7491  -6.0290  -6.0290  -4.9077  -4.9077
    -4.3397  -4.3397   0.7334   0.7334   0.9814   0.9814   1.3639   1.3639
     2.2289   2.2289   2.5874   2.5874   2.8084   2.8084   3.1006   3.1006
     3.4523   3.4523   3.8009   3.8009   3.9708   3.9708   4.2031   4.2031
     5.2503   5.2503   5.7004   5.7004   6.0179   6.0179   6.5895   6.5895
     7.3986   7.3986

          k = 0.0000-0.1290 0.0000 ( 36417 PWs)   bands (ev):

   -44.1715 -44.1715 -22.3224 -22.3224 -22.2116 -22.2116 -22.0907 -22.0906
    -7.6172  -7.2117  -6.7749  -6.7455  -6.6957  -5.2115  -5.1994  -4.9501
    -4.8803  -3.8647   0.5208   0.6724   0.8254   1.0222   1.4830   1.6607
     2.3933   2.5386   2.5787   2.9949   3.0594   3.0707   3.2846   3.3917
     3.4351   3.4843   3.8217   4.0229   4.0235   4.2100   4.2589   4.6185
     5.3408   5.4995   5.5159   5.5351   5.8995   6.1434   6.5384   6.7008
     6.9300   7.4538

          k = 0.0000-0.1290 0.1485 ( 36419 PWs)   bands (ev):

   -44.1715 -44.1715 -22.3224 -22.3224 -22.2116 -22.2116 -22.0906 -22.0906
    -7.5795  -7.3139  -6.7914  -6.7766  -6.4769  -5.6668  -4.9833  -4.8969
    -4.6958  -3.9779   0.5443   0.7106   0.9129   1.0697   1.0936   2.1051
     2.1589   2.4128   2.5157   3.0575   3.0804   3.1976   3.2072   3.2864
     3.6311   3.6879   3.7581   3.9779   3.9819   4.2364   4.2740   4.6450
     5.0138   5.0605   5.6639   5.9178   6.0953   6.1287   6.5430   6.7755
     6.7926   7.4294

          k = 0.0000-0.1290-0.2971 ( 36464 PWs)   bands (ev):

   -44.1715 -44.1715 -22.3224 -22.3224 -22.2116 -22.2116 -22.0906 -22.0906
    -7.4710  -7.4710  -6.7887  -6.7887  -6.1050  -6.1050  -4.9372  -4.9372
    -4.2817  -4.2817   0.7119   0.7119   0.8264   0.8264   1.5291   1.5291
     2.4625   2.4625   2.7207   2.7207   3.1171   3.1171   3.2329   3.2329
     3.7838   3.7838   3.8434   3.8434   4.2239   4.2239   4.4505   4.4505
     4.7561   4.7561   5.9259   5.9259   6.3053   6.3053   6.3937   6.3937
     7.2190   7.2190

          k = 1.0162 0.0000 0.0000 ( 36499 PWs)   bands (ev):

   -44.1688 -44.1688 -22.3086 -22.3086 -22.2812 -22.2812 -22.0816 -22.0816
    -6.6738  -6.6535  -5.7798  -5.7773  -5.5978  -5.5892  -5.5524  -5.5355
    -4.6210  -4.6076   0.1022   0.1510   0.4594   0.4980   1.0033   1.0279
     1.4816   1.6584   2.2198   2.2570   2.2970   2.3118   2.8270   2.8412
     2.9319   2.9846   3.1987   3.2967   3.3427   3.4706   3.5581   3.7166
     3.8760   3.8840   6.2859   6.3185   6.3766   6.4822   6.9039   6.9352
     6.9417   6.9542

          k = 1.0162 0.0000 0.1485 ( 36485 PWs)   bands (ev):

   -44.1688 -44.1688 -22.3086 -22.3086 -22.2812 -22.2812 -22.0816 -22.0816
    -6.6703  -6.6559  -5.7723  -5.7706  -5.6584  -5.6504  -5.4889  -5.4788
    -4.6271  -4.6177   0.0323   0.0486   0.6619   0.6742   1.0569   1.0642
     1.4645   1.5506   1.9104   1.9679   2.3228   2.3375   2.7221   2.8601
     2.9727   3.0153   3.1589   3.2597   3.4968   3.6377   3.6550   3.6737
     4.1694   4.1726   5.7905   5.8342   6.3210   6.3988   6.7826   6.8096
     7.1811   7.1825

          k = 1.0162 0.0000-0.2971 ( 36514 PWs)   bands (ev):

   -44.1688 -44.1688 -22.3086 -22.3086 -22.2812 -22.2812 -22.0816 -22.0816
    -6.6625  -6.6625  -5.7597  -5.7597  -5.6938  -5.6938  -5.4497  -5.4497
    -4.6307  -4.6307  -0.0137  -0.0137   0.8634   0.8634   1.1537   1.1537
     1.4035   1.4035   1.6620   1.6620   2.3223   2.3223   2.7730   2.7730
     3.0120   3.0120   3.2230   3.2230   3.5592   3.5592   3.7387   3.7387
     4.7706   4.7706   5.1270   5.1270   6.2992   6.2992   6.8019   6.8019
     7.2275   7.2275

          k = 1.2703 0.0645 0.0000 ( 36468 PWs)   bands (ev):

   -44.1692 -44.1692 -22.3108 -22.3108 -22.2709 -22.2709 -22.0830 -22.0829
    -6.7868  -6.7179  -6.3490  -6.0930  -5.9615  -5.2776  -5.2592  -5.0344
    -4.6857  -4.6362   0.0086   0.3344   0.6068   1.1585   1.1748   1.1938
     1.4991   1.7062   1.9300   1.9784   2.3933   2.5413   2.6063   2.7292
     2.7882   3.0553   3.2177   3.4170   3.5353   3.5603   3.7836   3.8531
     4.0119   4.4520   5.7379   6.1211   6.2484   6.5220   6.6785   6.8647
     7.0696   7.5472

          k = 1.2703 0.0645 0.1485 ( 36490 PWs)   bands (ev):

   -44.1692 -44.1692 -22.3108 -22.3108 -22.2709 -22.2709 -22.0830 -22.0829
    -6.7741  -6.7247  -6.3406  -6.2050  -5.8049  -5.3959  -5.1897  -5.0590
    -4.6716  -4.6382   0.0875   0.4393   0.5371   0.9223   1.1364   1.2275
     1.5766   1.6209   1.7045   2.2624   2.3198   2.6448   2.6840   2.8523
     2.8689   3.0808   3.2664   3.3367   3.4341   3.5863   3.6972   3.7775
     3.8796   4.8962   5.1857   6.2156   6.4371   6.5491   6.6611   6.9039
     6.9523   7.3442

          k = 1.2703 0.0645-0.2971 ( 36480 PWs)   bands (ev):

   -44.1692 -44.1692 -22.3108 -22.3108 -22.2709 -22.2709 -22.0830 -22.0830
    -6.7463  -6.7463  -6.3010  -6.3010  -5.5872  -5.5872  -5.1193  -5.1193
    -4.6492  -4.6492   0.2935   0.2935   0.7539   0.7539   1.0081   1.0081
     1.5727   1.5727   2.0599   2.0599   2.4947   2.4947   2.8698   2.8698
     2.9640   2.9640   3.2742   3.2742   3.5715   3.5715   3.7145   3.7145
     4.1980   4.1980   5.8679   5.8679   6.3209   6.3209   6.8470   6.8470
     7.1625   7.1625

          k =-0.5081-0.3869 0.0000 ( 36463 PWs)   bands (ev):

   -44.1702 -44.1702 -22.3157 -22.3157 -22.2464 -22.2464 -22.0862 -22.0861
    -7.1569  -6.8829  -6.6309  -6.4835  -6.3660  -5.1669  -5.1608  -4.8080
    -4.7332  -4.4068   0.4681   0.7477   0.8251   1.3782   1.3817   1.5695
     1.6118   1.7596   1.9157   2.2461   2.2676   2.3318   2.6358   3.1631
     3.2452   3.2954   3.2990   3.4251   3.7052   3.7374   3.9600   4.0515
     4.7677   5.2702   5.3441   5.6871   5.9573   6.6176   6.7139   6.7571
     7.1617   7.5092

          k =-0.5081-0.3869 0.1485 ( 36477 PWs)   bands (ev):

   -44.1702 -44.1702 -22.3157 -22.3157 -22.2464 -22.2464 -22.0862 -22.0861
    -7.1248  -6.9295  -6.6357  -6.5930  -6.1475  -5.4762  -4.9755  -4.7733
    -4.7030  -4.4343   0.5007   0.7827   0.9412   1.0903   1.3956   1.4329
     1.5532   1.6658   2.0591   2.0882   2.3616   2.7098   2.9555   3.1391
     3.2556   3.2892   3.3292   3.4569   3.6135   3.7362   3.8077   4.0953
     4.3525   4.6271   5.8671   5.9942   6.2209   6.5500   6.7453   6.7692
     7.0366   7.4848

          k =-0.5081-0.3869-0.2971 ( 36492 PWs)   bands (ev):

   -44.1702 -44.1702 -22.3157 -22.3157 -22.2464 -22.2464 -22.0861 -22.0861
    -7.0364  -7.0364  -6.6361  -6.6361  -5.8226  -5.8226  -4.8656  -4.8656
    -4.5341  -4.5341   0.6444   0.6444   1.0981   1.0981   1.2719   1.2719
     1.5051   1.5051   2.0635   2.0635   2.8696   2.8696   3.2062   3.2062
     3.2304   3.2304   3.3207   3.3207   3.6691   3.6691   3.8786   3.8786
     4.1632   4.1632   6.0886   6.0886   6.6167   6.6167   6.7474   6.7474
     7.0905   7.0905

          k =-0.2541-0.3224 0.0000 ( 36485 PWs)   bands (ev):

   -44.1711 -44.1711 -22.3204 -22.3204 -22.2218 -22.2218 -22.0893 -22.0893
    -7.4788  -7.0929  -6.7608  -6.6794  -6.6432  -5.1900  -5.1832  -4.9169
    -4.8303  -4.0007   0.6419   0.9760   0.9835   1.2075   1.3147   1.5574
     2.0060   2.1838   2.2989   2.3740   2.5094   3.1249   3.2270   3.2900
     3.4981   3.7066   3.7661   3.8660   4.0200   4.0265   4.0844   4.2182
     4.3856   4.6846   5.7321   6.0418   6.3879   6.4857   6.6825   6.8751
     6.9757   7.0162

          k =-0.2541-0.3224 0.1485 ( 36445 PWs)   bands (ev):

   -44.1711 -44.1711 -22.3204 -22.3204 -22.2218 -22.2218 -22.0893 -22.0893
    -7.4420  -7.1852  -6.7743  -6.7570  -6.3937  -5.6068  -4.9875  -4.8559
    -4.6866  -4.0886   0.6427   0.9353   1.0990   1.1122   1.1980   1.6913
     1.8967   2.2437   2.3961   2.5200   2.6661   2.9339   3.2109   3.2747
     3.3154   3.4944   3.8109   3.8719   3.9458   4.0259   4.0763   4.1407
     4.6892   5.0665   5.7648   5.7998   6.1768   6.2836   6.6940   6.7227
     7.1810   7.2426

          k =-0.2541-0.3224-0.2971 ( 36442 PWs)   bands (ev):

   -44.1711 -44.1711 -22.3204 -22.3204 -22.2218 -22.2218 -22.0893 -22.0893
    -7.3359  -7.3359  -6.7752  -6.7752  -6.0257  -6.0257  -4.9175  -4.9175
    -4.3351  -4.3351   0.7421   0.7421   1.1178   1.1178   1.3789   1.3789
     2.2208   2.2208   2.5104   2.5104   2.8302   2.8302   3.1554   3.1554
     3.2787   3.2787   3.7996   3.7996   3.9755   3.9755   4.1202   4.1202
     5.2307   5.2307   5.6667   5.6667   5.9850   5.9850   6.6956   6.6956
     7.3697   7.3697

          k = 0.0000-0.2579 0.0000 ( 36445 PWs)   bands (ev):

   -44.1715 -44.1715 -22.3224 -22.3224 -22.2116 -22.2116 -22.0907 -22.0906
    -7.6007  -7.1926  -6.7981  -6.7419  -6.7232  -5.2093  -5.2088  -4.9574
    -4.8717  -3.8663   0.5739   0.7919   0.8408   1.0570   1.5361   1.6834
     2.4038   2.5561   2.5628   3.0339   3.0545   3.1581   3.1588   3.2339
     3.2783   3.4590   3.7949   4.0117   4.0227   4.0668   4.1378   4.6241
     5.3260   5.4241   5.5328   5.6018   5.9266   6.1974   6.6105   6.6378
     6.9327   7.2617

          k = 0.0000-0.2579 0.1485 ( 36452 PWs)   bands (ev):

   -44.1715 -44.1715 -22.3224 -22.3224 -22.2116 -22.2116 -22.0906 -22.0906
    -7.5629  -7.2955  -6.8161  -6.7963  -6.4790  -5.6640  -5.0046  -4.8936
    -4.6878  -3.9777   0.5829   0.8219   0.9830   1.0952   1.1151   2.1285
     2.1903   2.4241   2.5320   3.0373   3.0646   3.0926   3.1440   3.1847
     3.6138   3.6641   3.7055   3.9370   3.9787   4.1187   4.1678   4.6507
     5.0136   5.0353   5.6851   5.9218   6.1061   6.1222   6.5147   6.7780
     6.8821   7.2519

          k = 0.0000-0.2579-0.2971 ( 36454 PWs)   bands (ev):

   -44.1715 -44.1715 -22.3224 -22.3224 -22.2116 -22.2116 -22.0906 -22.0906
    -7.4538  -7.4538  -6.8124  -6.8124  -6.1025  -6.1025  -4.9461  -4.9461
    -4.2777  -4.2777   0.7497   0.7497   0.9127   0.9127   1.5550   1.5550
     2.4761   2.4761   2.7340   2.7340   3.0786   3.0786   3.1020   3.1020
     3.7716   3.7716   3.8330   3.8330   4.0885   4.0885   4.4446   4.4446
     4.7604   4.7604   5.8845   5.8845   6.3367   6.3367   6.3964   6.3964
     7.2151   7.2151

          k = 1.5243 0.0000 0.0000 ( 36439 PWs)   bands (ev):

   -44.1702 -44.1702 -22.3157 -22.3157 -22.2464 -22.2464 -22.0862 -22.0861
    -7.1483  -6.8804  -6.6381  -6.4912  -6.3643  -5.1712  -5.1598  -4.8085
    -4.7315  -4.4071   0.4727   0.7410   0.8191   1.3807   1.4934   1.5378
     1.6062   1.7786   1.8981   2.2618   2.2681   2.3388   2.6441   3.1056
     3.2400   3.2665   3.3058   3.4871   3.6381   3.6932   3.9558   4.0638
     4.7633   5.2669   5.3120   5.6758   5.9815   6.5815   6.7795   6.7909
     7.1170   7.5078

          k = 1.5243 0.0000 0.1485 ( 36476 PWs)   bands (ev):

   -44.1702 -44.1702 -22.3157 -22.3157 -22.2464 -22.2464 -22.0862 -22.0861
    -7.1162  -6.9238  -6.6432  -6.6032  -6.1462  -5.4751  -4.9813  -4.7736
    -4.7009  -4.4337   0.5049   0.7808   0.9361   1.0884   1.4310   1.5083
     1.5176   1.6648   2.0646   2.0999   2.3575   2.7253   2.9654   3.0823
     3.2434   3.2935   3.3041   3.5344   3.5597   3.6973   3.7971   4.1008
     4.3146   4.6237   5.8441   5.9977   6.2206   6.5233   6.7929   6.8252
     6.9896   7.4970

          k = 1.5243 0.0000-0.2971 ( 36508 PWs)   bands (ev):

   -44.1702 -44.1702 -22.3157 -22.3157 -22.2464 -22.2464 -22.0861 -22.0861
    -7.0282  -7.0282  -6.6462  -6.6462  -5.8210  -5.8210  -4.8697  -4.8697
    -4.5319  -4.5319   0.6487   0.6487   1.0951   1.0951   1.2702   1.2702
     1.5454   1.5454   2.0628   2.0628   2.8766   2.8766   3.1446   3.1446
     3.2713   3.2713   3.3355   3.3355   3.6382   3.6382   3.8776   3.8776
     4.1333   4.1333   6.0729   6.0729   6.6124   6.6124   6.7681   6.7681
     7.0953   7.0953

          k =-0.2541-0.4514 0.0000 ( 36444 PWs)   bands (ev):

   -44.1711 -44.1711 -22.3204 -22.3204 -22.2218 -22.2218 -22.0893 -22.0893
    -7.4647  -7.0789  -6.7734  -6.7053  -6.6404  -5.1982  -5.1811  -4.9183
    -4.8270  -4.0017   0.6488   0.9949   1.0821   1.2573   1.4059   1.5553
     2.0443   2.1711   2.2744   2.3240   2.4231   3.1078   3.1733   3.2384
     3.4921   3.7093   3.7383   3.8460   3.9595   4.0298   4.0572   4.1924
     4.4328   4.6054   5.7922   6.0472   6.3981   6.4345   6.7290   6.9057
     6.9136   7.0097

          k =-0.2541-0.4514 0.1485 ( 36461 PWs)   bands (ev):

   -44.1711 -44.1711 -22.3204 -22.3204 -22.2218 -22.2218 -22.0893 -22.0893
    -7.4277  -7.1698  -6.7900  -6.7787  -6.3935  -5.6046  -5.0009  -4.8556
    -4.6809  -4.0883   0.6457   0.9566   1.1237   1.2389   1.2845   1.7109
     1.9084   2.2187   2.2933   2.4610   2.6889   2.9295   3.1584   3.1737
     3.3488   3.4834   3.8199   3.8389   3.9433   3.9939   4.0493   4.0884
     4.6959   5.0326   5.7705   5.8027   6.1847   6.2272   6.7503   6.7672
     7.1444   7.2392

          k =-0.2541-0.4514-0.2971 ( 36490 PWs)   bands (ev):

   -44.1711 -44.1711 -22.3204 -22.3204 -22.2218 -22.2218 -22.0893 -22.0893
    -7.3211  -7.3211  -6.7948  -6.7948  -6.0233  -6.0233  -4.9244  -4.9244
    -4.3320  -4.3320   0.7418   0.7418   1.2454   1.2454   1.3961   1.3961
     2.1961   2.1961   2.4336   2.4336   2.8430   2.8430   3.1454   3.1454
     3.2274   3.2274   3.7861   3.7861   3.9885   3.9885   4.0627   4.0627
     5.2190   5.2190   5.6491   5.6491   5.9564   5.9564   6.7597   6.7597
     7.3478   7.3478

          k = 0.0000-0.3869 0.0000 ( 36477 PWs)   bands (ev):

   -44.1715 -44.1715 -22.3224 -22.3224 -22.2116 -22.2116 -22.0907 -22.0906
    -7.5832  -7.1721  -6.8175  -6.7569  -6.7383  -5.2197  -5.2061  -4.9607
    -4.8665  -3.8680   0.5973   0.8567   0.9551   1.1260   1.6012   1.7045
     2.4147   2.5180   2.5747   2.8664   3.0303   3.0374   3.0935   3.2721
     3.2924   3.4330   3.8312   3.8846   3.9970   4.0043   4.0222   4.6300
     5.3116   5.3814   5.5498   5.6789   5.9551   6.2267   6.5056   6.7115
     6.9352   7.2908

          k = 0.0000-0.3869 0.1485 ( 36452 PWs)   bands (ev):

   -44.1715 -44.1715 -22.3224 -22.3224 -22.2116 -22.2116 -22.0906 -22.0906
    -7.5452  -7.2756  -6.8402  -6.8198  -6.4806  -5.6612  -5.0232  -4.8925
    -4.6803  -3.9775   0.5930   0.9457   1.0879   1.1054   1.1955   2.1581
     2.2073   2.4359   2.5493   2.8140   2.8469   3.0478   3.1712   3.2461
     3.5966   3.6393   3.7039   3.9126   3.9752   4.0031   4.0652   4.6565
     5.0132   5.0221   5.7158   5.9264   6.0827   6.1262   6.4831   6.7805
     6.9472   7.2092

          k = 0.0000-0.3869-0.2971 ( 36454 PWs)   bands (ev):

   -44.1715 -44.1715 -22.3224 -22.3224 -22.2116 -22.2116 -22.0906 -22.0906
    -7.4353  -7.4353  -6.8375  -6.8375  -6.1000  -6.1000  -4.9549  -4.9549
    -4.2738  -4.2738   0.7460   0.7460   1.0721   1.0721   1.5837   1.5837
     2.4904   2.4904   2.6563   2.6563   2.9597   2.9597   3.0862   3.0862
     3.7729   3.7729   3.8227   3.8227   3.9902   3.9902   4.4330   4.4330
     4.7648   4.7648   5.8443   5.8443   6.3535   6.3535   6.3993   6.3993
     7.1889   7.1890

          k =-2.0325 0.0000 0.0000 ( 36452 PWs)   bands (ev):

   -44.1715 -44.1715 -22.3224 -22.3224 -22.2116 -22.2116 -22.0907 -22.0906
    -7.5755  -7.1633  -6.8227  -6.7744  -6.7368  -5.2241  -5.2050  -4.9612
    -4.8651  -3.8686   0.5997   0.8635   1.0574   1.1426   1.6431   1.7127
     2.4193   2.4823   2.5829   2.7212   2.9566   3.0300   3.1259   3.2696
     3.3793   3.4221   3.7777   3.8654   3.9428   3.9793   4.0220   4.6325
     5.3058   5.3693   5.5569   5.7158   5.9675   6.2350   6.4560   6.7366
     6.9361   7.2578

          k =-2.0325 0.0000 0.1485 ( 36456 PWs)   bands (ev):

   -44.1715 -44.1715 -22.3224 -22.3224 -22.2116 -22.2116 -22.0906 -22.0906
    -7.5374  -7.2668  -6.8497  -6.8311  -6.4810  -5.6600  -5.0304  -4.8925
    -4.6773  -3.9774   0.5917   0.9934   1.1006   1.1492   1.2589   2.1698
     2.2095   2.4410   2.5568   2.6753   2.7575   3.0406   3.1653   3.3124
     3.5896   3.6168   3.7119   3.8804   3.9646   3.9737   4.0328   4.6590
     5.0130   5.0193   5.7322   5.9285   6.0617   6.1313   6.4701   6.7815
     6.9686   7.1910

          k =-2.0325 0.0000-0.2971 ( 36460 PWs)   bands (ev):

   -44.1715 -44.1715 -22.3224 -22.3224 -22.2116 -22.2116 -22.0906 -22.0906
    -7.4272  -7.4272  -6.8483  -6.8483  -6.0989  -6.0989  -4.9586  -4.9586
    -4.2722  -4.2722   0.7417   0.7417   1.1559   1.1559   1.5977   1.5977
     2.4966   2.4966   2.5653   2.5653   2.9526   2.9526   3.0794   3.0794
     3.7640   3.7640   3.8184   3.8184   3.9637   3.9637   4.4288   4.4288
     4.7667   4.7667   5.8268   5.8268   6.3580   6.3580   6.4006   6.4006
     7.1752   7.1752

     the Fermi energy is     5.2575 ev

!    total energy              =   -4240.92411740 Ry

     total all-electron energy =   -150287.617812 Ry
     estimated scf accuracy    <          9.1E-12 Ry
     smearing contrib. (-TS)   =      -0.00006001 Ry
     internal energy E=F+TS    =   -4240.92405739 Ry

     The total energy is F=E-TS. E is the sum of the following terms:
     one-electron contribution =    -164.02201552 Ry
     hartree contribution      =     115.46165984 Ry
     xc contribution           =    -201.39338567 Ry
     ewald contribution        =    -223.46261160 Ry
     one-center paw contrib.   =   -3767.50770445 Ry

     convergence has been achieved in  20 iterations

     Forces acting on atoms (cartesian axes, Ry/au):

     atom    1 type  1   force =     0.00000000   -0.02942079    0.00000000
     atom    2 type  1   force =     0.00000000    0.02942079    0.00000000
     atom    3 type  2   force =     0.00000000    0.00216900    0.00000000
     atom    4 type  2   force =     0.00000000   -0.00216900    0.00000000
     atom    5 type  2   force =     0.00000000    0.00649432   -0.00119938
     atom    6 type  2   force =     0.00000000   -0.00649432    0.00119938
     atom    7 type  2   force =     0.00000000    0.00649432    0.00119938
     atom    8 type  2   force =     0.00000000   -0.00649432   -0.00119938
     atom    9 type  2   force =     0.00000000    0.01964418    0.01112893
     atom   10 type  2   force =     0.00000000   -0.01964418   -0.01112893
     atom   11 type  2   force =     0.00000000    0.01964418   -0.01112893
     atom   12 type  2   force =     0.00000000   -0.01964418    0.01112893

     Total force =     0.062881     Total SCF correction =     0.000004


     Computing stress (Cartesian axis) and pressure

          total   stress  (Ry/bohr**3)                   (kbar)     P=       -5.18
  -0.00002107   0.00000000   0.00000000           -3.10        0.00        0.00
  -0.00000000  -0.00003305   0.00000000           -0.00       -4.86        0.00
   0.00000000   0.00000000  -0.00005153            0.00        0.00       -7.58

 
     init_run     :     18.36s CPU     18.80s WALL (       1 calls)
     electrons    :   1044.80s CPU   1055.87s WALL (       1 calls)
     forces       :      6.56s CPU      6.76s WALL (       1 calls)
     stress       :     41.75s CPU     42.35s WALL (       1 calls)

     Called by init_run:
     wfcinit      :     13.86s CPU     14.01s WALL (       1 calls)
     potinit      :      1.41s CPU      1.46s WALL (       1 calls)
     hinit0       :      1.84s CPU      1.89s WALL (       1 calls)

     Called by electrons:
     c_bands      :    865.92s CPU    868.87s WALL (      21 calls)
     sum_band     :    150.25s CPU    154.48s WALL (      21 calls)
     v_of_rho     :      6.21s CPU      6.52s WALL (      21 calls)
     newd         :     15.62s CPU     19.37s WALL (      21 calls)
     PAW_pot      :      6.61s CPU      6.61s WALL (      21 calls)
     mix_rho      :      0.95s CPU      0.96s WALL (      21 calls)

     Called by c_bands:
     init_us_2    :     12.66s CPU     12.69s WALL (    2835 calls)
     cegterg      :    779.79s CPU    782.53s WALL (    1323 calls)

     Called by *egterg:
     cdiaghg      :     28.66s CPU     28.73s WALL (    8709 calls)
     h_psi        :    600.61s CPU    603.23s WALL (    8835 calls)
     s_psi        :     48.24s CPU     48.30s WALL (    8835 calls)
     g_psi        :      2.14s CPU      2.15s WALL (    7449 calls)

     Called by h_psi:
     h_psi:calbec :     41.92s CPU     42.00s WALL (    8835 calls)
     vloc_psi     :    507.32s CPU    509.73s WALL (    8835 calls)
     add_vuspsi   :     47.98s CPU     48.04s WALL (    8835 calls)

     General routines
     calbec       :     55.63s CPU     55.73s WALL (   10473 calls)
     fft          :      3.72s CPU      3.87s WALL (     297 calls)
     ffts         :      0.09s CPU      0.09s WALL (      42 calls)
     fftw         :    470.57s CPU    472.77s WALL (  472398 calls)
     interpolate  :      0.35s CPU      0.35s WALL (      21 calls)
 
     Parallel routines
 
     PWSCF        :  18m31.73s CPU  18m44.13s WALL

 
   This run was terminated on:  15:48:42  19Nov2021            

=------------------------------------------------------------------------------=
   JOB DONE.
=------------------------------------------------------------------------------=
