
     Program PWSCF v.6.8 starts on 19Nov2021 at 15:19: 6 

     This program is part of the open-source Quantum ESPRESSO suite
     for quantum simulation of materials; please cite
         "P. Giannozzi et al., J. Phys.:Condens. Matter 21 395502 (2009);
         "P. Giannozzi et al., J. Phys.:Condens. Matter 29 465901 (2017);
         "P. Giannozzi et al., J. Chem. Phys. 152 154105 (2020);
          URL http://www.quantum-espresso.org", 
     in publications or presentations arising from this work. More details at
     http://www.quantum-espresso.org/quote

     Parallel version (MPI), running on    10 processors

     MPI processes distributed on     1 nodes
     R & G space division:  proc/nbgrp/npool/nimage =      10
     71464 MiB available memory on the printing compute node when the environment starts
 
     Waiting for input...
     Reading input from standard input

     Current dimensions of program PWSCF are:
     Max number of different atomic species (ntypx) = 10
     Max number of k-points (npk) =  40000
     Max angular momentum in pseudopotentials (lmaxx) =  4
     file Zr.pbe-spn-kjpaw_psl.1.0.0.UPF: wavefunction(s)  4S 4P renormalized
     file Te.pbe-n-kjpaw_psl.1.0.0.UPF: wavefunction(s)  5S 5P renormalized
     Message from routine setup:
     using ibrav=0 with symmetry is DISCOURAGED, use correct ibrav instead

     Subspace diagonalization in iterative solution of the eigenvalue problem:
     a serial algorithm will be used

 
     Parallelization info
     --------------------
     sticks:   dense  smooth     PW     G-vecs:    dense   smooth      PW
     Min         734     293     87               115340    29174    4753
     Max         735     295     88               115345    29176    4760
     Sum        7345    2937    873              1153415   291749   47557
 
     Using Slab Decomposition
 


     bravais-lattice index     =            0
     lattice parameter (alat)  =      15.5510  a.u.
     unit-cell volume          =    3018.5011 (a.u.)^3
     number of atoms/cell      =           12
     number of atomic types    =            2
     number of electrons       =        84.00
     number of Kohn-Sham states=           50
     kinetic-energy cutoff     =      80.0000  Ry
     charge density cutoff     =     800.0000  Ry
     scf convergence threshold =      1.0E-10
     mixing beta               =       0.7000
     number of iterations used =            8  plain     mixing
     Exchange-correlation= SLA  PW   PBX  PBC
                           (   1   4   3   4   0   0   0)

     celldm(1)=  15.551040  celldm(2)=   0.000000  celldm(3)=   0.000000
     celldm(4)=   0.000000  celldm(5)=   0.000000  celldm(6)=   0.000000

     crystal axes: (cart. coord. in units of alat)
               a(1) = (   0.246007  -0.969268   0.000000 )  
               a(2) = (   0.246007   0.969268   0.000000 )  
               a(3) = (   0.000000   0.000000   1.683031 )  

     reciprocal axes: (cart. coord. in units 2 pi/alat)
               b(1) = (  2.032465 -0.515853  0.000000 )  
               b(2) = (  2.032465  0.515853  0.000000 )  
               b(3) = (  0.000000  0.000000  0.594166 )  


     PseudoPot. # 1 for Zr read from file:
     pseudo/Zr.pbe-spn-kjpaw_psl.1.0.0.UPF
     MD5 check sum: 02112c41713a0468aff2bb39ef194e36
     Pseudo is Projector augmented-wave + core cor, Zval = 12.0
     Generated using &quot;atomic&quot; code by A. Dal Corso  v.6.2.2
     Shape of augmentation charge: PSQ
     Using radial grid of 1225 points,  6 beta functions with: 
                l(1) =   0
                l(2) =   0
                l(3) =   1
                l(4) =   1
                l(5) =   2
                l(6) =   2
     Q(r) pseudized with 0 coefficients 


     PseudoPot. # 2 for Te read from file:
     pseudo/Te.pbe-n-kjpaw_psl.1.0.0.UPF
     MD5 check sum: 66247bff2bd9dbf220fbb0bf5ab56e9d
     Pseudo is Projector augmented-wave + core cor, Zval =  6.0
     Generated using &quot;atomic&quot; code by A. Dal Corso  v.6.3
     Shape of augmentation charge: PSQ
     Using radial grid of 1245 points,  6 beta functions with: 
                l(1) =   0
                l(2) =   0
                l(3) =   1
                l(4) =   1
                l(5) =   2
                l(6) =   2
     Q(r) pseudized with 0 coefficients 


     atomic species   valence    mass     pseudopotential
        Zr            12.00    91.22000     Zr( 1.00)
        Te             6.00   127.60000     Te( 1.00)

      8 Sym. Ops., with inversion, found ( 4 have fractional translation)



   Cartesian axes

     site n.     atom                  positions (alat units)
         1           Zr  tau(   1) = (   0.0000000   0.6116783   0.4207578  )
         2           Zr  tau(   2) = (   0.2460067   0.3575899   1.2622733  )
         3           Te  tau(   3) = (   0.2460067   0.3343704   0.4207578  )
         4           Te  tau(   4) = (   0.0000000   0.6348977   1.2622733  )
         5           Te  tau(   5) = (   0.2460067   0.8070623   0.2501770  )
         6           Te  tau(   6) = (   0.0000000   0.1622058   1.4328540  )
         7           Te  tau(   7) = (   0.2460067   0.8070623   0.5913385  )
         8           Te  tau(   8) = (   0.0000000   0.1622058   1.0916926  )
         9           Te  tau(   9) = (   0.0000000   0.4042568   0.7207358  )
        10           Te  tau(  10) = (   0.2460067   0.5650113   0.9622953  )
        11           Te  tau(  11) = (   0.0000000   0.4042568   0.1207798  )
        12           Te  tau(  12) = (   0.2460067   0.5650113   1.5622513  )

     number of k points=    63  Methfessel-Paxton smearing, width (Ry)=  0.0030
                       cart. coord. in units 2pi/alat
        k(    1) = (   0.0000000   0.0000000   0.0000000), wk =   0.0078125
        k(    2) = (   0.0000000   0.0000000   0.1485415), wk =   0.0156250
        k(    3) = (   0.0000000   0.0000000  -0.2970830), wk =   0.0078125
        k(    4) = (   0.2540581   0.0644816   0.0000000), wk =   0.0312500
        k(    5) = (   0.2540581   0.0644816   0.1485415), wk =   0.0625000
        k(    6) = (   0.2540581   0.0644816  -0.2970830), wk =   0.0312500
        k(    7) = (   0.5081162   0.1289633   0.0000000), wk =   0.0312500
        k(    8) = (   0.5081162   0.1289633   0.1485415), wk =   0.0625000
        k(    9) = (   0.5081162   0.1289633  -0.2970830), wk =   0.0312500
        k(   10) = (   0.7621743   0.1934449   0.0000000), wk =   0.0312500
        k(   11) = (   0.7621743   0.1934449   0.1485415), wk =   0.0625000
        k(   12) = (   0.7621743   0.1934449  -0.2970830), wk =   0.0312500
        k(   13) = (  -1.0162324  -0.2579266   0.0000000), wk =   0.0156250
        k(   14) = (  -1.0162324  -0.2579266   0.1485415), wk =   0.0312500
        k(   15) = (  -1.0162324  -0.2579266  -0.2970830), wk =   0.0156250
        k(   16) = (   0.5081162   0.0000000   0.0000000), wk =   0.0156250
        k(   17) = (   0.5081162   0.0000000   0.1485415), wk =   0.0312500
        k(   18) = (   0.5081162   0.0000000  -0.2970830), wk =   0.0156250
        k(   19) = (   0.7621743   0.0644816   0.0000000), wk =   0.0312500
        k(   20) = (   0.7621743   0.0644816   0.1485415), wk =   0.0625000
        k(   21) = (   0.7621743   0.0644816  -0.2970830), wk =   0.0312500
        k(   22) = (   1.0162324   0.1289633   0.0000000), wk =   0.0312500
        k(   23) = (   1.0162324   0.1289633   0.1485415), wk =   0.0625000
        k(   24) = (   1.0162324   0.1289633  -0.2970830), wk =   0.0312500
        k(   25) = (  -0.7621743  -0.3224082   0.0000000), wk =   0.0312500
        k(   26) = (  -0.7621743  -0.3224082   0.1485415), wk =   0.0625000
        k(   27) = (  -0.7621743  -0.3224082  -0.2970830), wk =   0.0312500
        k(   28) = (  -0.5081162  -0.2579266   0.0000000), wk =   0.0312500
        k(   29) = (  -0.5081162  -0.2579266   0.1485415), wk =   0.0625000
        k(   30) = (  -0.5081162  -0.2579266  -0.2970830), wk =   0.0312500
        k(   31) = (  -0.2540581  -0.1934449   0.0000000), wk =   0.0312500
        k(   32) = (  -0.2540581  -0.1934449   0.1485415), wk =   0.0625000
        k(   33) = (  -0.2540581  -0.1934449  -0.2970830), wk =   0.0312500
        k(   34) = (   0.0000000  -0.1289633   0.0000000), wk =   0.0156250
        k(   35) = (   0.0000000  -0.1289633   0.1485415), wk =   0.0312500
        k(   36) = (   0.0000000  -0.1289633  -0.2970830), wk =   0.0156250
        k(   37) = (   1.0162324   0.0000000   0.0000000), wk =   0.0156250
        k(   38) = (   1.0162324   0.0000000   0.1485415), wk =   0.0312500
        k(   39) = (   1.0162324   0.0000000  -0.2970830), wk =   0.0156250
        k(   40) = (   1.2702905   0.0644816   0.0000000), wk =   0.0312500
        k(   41) = (   1.2702905   0.0644816   0.1485415), wk =   0.0625000
        k(   42) = (   1.2702905   0.0644816  -0.2970830), wk =   0.0312500
        k(   43) = (  -0.5081162  -0.3868899   0.0000000), wk =   0.0312500
        k(   44) = (  -0.5081162  -0.3868899   0.1485415), wk =   0.0625000
        k(   45) = (  -0.5081162  -0.3868899  -0.2970830), wk =   0.0312500
        k(   46) = (  -0.2540581  -0.3224082   0.0000000), wk =   0.0312500
        k(   47) = (  -0.2540581  -0.3224082   0.1485415), wk =   0.0625000
        k(   48) = (  -0.2540581  -0.3224082  -0.2970830), wk =   0.0312500
        k(   49) = (   0.0000000  -0.2579266   0.0000000), wk =   0.0156250
        k(   50) = (   0.0000000  -0.2579266   0.1485415), wk =   0.0312500
        k(   51) = (   0.0000000  -0.2579266  -0.2970830), wk =   0.0156250
        k(   52) = (   1.5243485   0.0000000   0.0000000), wk =   0.0156250
        k(   53) = (   1.5243485   0.0000000   0.1485415), wk =   0.0312500
        k(   54) = (   1.5243485   0.0000000  -0.2970830), wk =   0.0156250
        k(   55) = (  -0.2540581  -0.4513715   0.0000000), wk =   0.0312500
        k(   56) = (  -0.2540581  -0.4513715   0.1485415), wk =   0.0625000
        k(   57) = (  -0.2540581  -0.4513715  -0.2970830), wk =   0.0312500
        k(   58) = (   0.0000000  -0.3868899   0.0000000), wk =   0.0156250
        k(   59) = (   0.0000000  -0.3868899   0.1485415), wk =   0.0312500
        k(   60) = (   0.0000000  -0.3868899  -0.2970830), wk =   0.0156250
        k(   61) = (  -2.0324647   0.0000000   0.0000000), wk =   0.0078125
        k(   62) = (  -2.0324647   0.0000000   0.1485415), wk =   0.0156250
        k(   63) = (  -2.0324647   0.0000000  -0.2970830), wk =   0.0078125

     Dense  grid:  1153415 G-vectors     FFT dimensions: ( 144, 144, 240)

     Smooth grid:   291749 G-vectors     FFT dimensions: (  90,  90, 150)

     Estimated max dynamical RAM per process >     657.19 MB

     Estimated total dynamical RAM >       6.42 GB

     Initial potential from superposition of free atoms

     starting charge   83.99353, renormalised to   84.00000
     Starting wfcs are   66 randomized atomic wfcs
     Checking if some PAW data can be deallocated... 

     total cpu time spent up to now is       19.6 secs

     Self-consistent Calculation

     iteration #  1     ecut=    80.00 Ry     beta= 0.70
     Davidson diagonalization with overlap
     ethr =  1.00E-02,  avg # of iterations =  2.0

     Threshold (ethr) on eigenvalues was too large:
     Diagonalizing with lowered threshold

     Davidson diagonalization with overlap
     ethr =  3.75E-04,  avg # of iterations =  4.1

     total cpu time spent up to now is      102.9 secs

     total energy              =   -4240.71520157 Ry
     estimated scf accuracy    <       0.42580529 Ry

     iteration #  2     ecut=    80.00 Ry     beta= 0.70
     Davidson diagonalization with overlap
     ethr =  5.07E-04,  avg # of iterations =  7.5

     total cpu time spent up to now is      162.8 secs

     total energy              =   -4240.62211367 Ry
     estimated scf accuracy    <       2.17277841 Ry

     iteration #  3     ecut=    80.00 Ry     beta= 0.70
     Davidson diagonalization with overlap
     ethr =  5.07E-04,  avg # of iterations =  5.1

     total cpu time spent up to now is      214.2 secs

     total energy              =   -4240.91277930 Ry
     estimated scf accuracy    <       0.02170440 Ry

     iteration #  4     ecut=    80.00 Ry     beta= 0.70
     Davidson diagonalization with overlap
     c_bands:  2 eigenvalues not converged
     c_bands:  1 eigenvalues not converged
     c_bands:  2 eigenvalues not converged
     c_bands:  1 eigenvalues not converged
     c_bands:  1 eigenvalues not converged
     c_bands:  2 eigenvalues not converged
     c_bands:  1 eigenvalues not converged
     c_bands:  1 eigenvalues not converged
     c_bands:  2 eigenvalues not converged
     c_bands:  1 eigenvalues not converged
     c_bands:  1 eigenvalues not converged
     c_bands:  2 eigenvalues not converged
     ethr =  2.58E-05,  avg # of iterations = 16.3

     total cpu time spent up to now is      303.8 secs

     total energy              =   -4240.93200307 Ry
     estimated scf accuracy    <       0.10573407 Ry

     iteration #  5     ecut=    80.00 Ry     beta= 0.70
     Davidson diagonalization with overlap
     ethr =  2.58E-05,  avg # of iterations =  5.2

     total cpu time spent up to now is      349.0 secs

     total energy              =   -4240.93412987 Ry
     estimated scf accuracy    <       0.02442444 Ry

     iteration #  6     ecut=    80.00 Ry     beta= 0.70
     Davidson diagonalization with overlap
     ethr =  2.58E-05,  avg # of iterations =  2.6

     total cpu time spent up to now is      388.1 secs

     total energy              =   -4240.93526151 Ry
     estimated scf accuracy    <       0.00341911 Ry

     iteration #  7     ecut=    80.00 Ry     beta= 0.70
     Davidson diagonalization with overlap
     c_bands:  1 eigenvalues not converged
     c_bands:  1 eigenvalues not converged
     c_bands:  1 eigenvalues not converged
     c_bands:  1 eigenvalues not converged
     c_bands:  1 eigenvalues not converged
     ethr =  4.07E-06,  avg # of iterations = 13.0

     total cpu time spent up to now is      457.8 secs

     total energy              =   -4240.93712284 Ry
     estimated scf accuracy    <       0.00287600 Ry

     iteration #  8     ecut=    80.00 Ry     beta= 0.70
     Davidson diagonalization with overlap
     c_bands:  1 eigenvalues not converged
     ethr =  3.42E-06,  avg # of iterations =  2.7

     total cpu time spent up to now is      495.3 secs

     total energy              =   -4240.93711446 Ry
     estimated scf accuracy    <       0.00067571 Ry

     iteration #  9     ecut=    80.00 Ry     beta= 0.70
     Davidson diagonalization with overlap
     ethr =  8.04E-07,  avg # of iterations =  6.0

     total cpu time spent up to now is      540.2 secs

     total energy              =   -4240.93724716 Ry
     estimated scf accuracy    <       0.00001035 Ry

     iteration # 10     ecut=    80.00 Ry     beta= 0.70
     Davidson diagonalization with overlap
     c_bands:  1 eigenvalues not converged
     ethr =  1.23E-08,  avg # of iterations = 10.7

     total cpu time spent up to now is      613.4 secs

     total energy              =   -4240.93727227 Ry
     estimated scf accuracy    <       0.00001977 Ry

     iteration # 11     ecut=    80.00 Ry     beta= 0.70
     Davidson diagonalization with overlap
     ethr =  1.23E-08,  avg # of iterations =  3.6

     total cpu time spent up to now is      655.7 secs

     total energy              =   -4240.93727508 Ry
     estimated scf accuracy    <       0.00000014 Ry

     iteration # 12     ecut=    80.00 Ry     beta= 0.70
     Davidson diagonalization with overlap
     c_bands:  1 eigenvalues not converged
     c_bands:  1 eigenvalues not converged
     ethr =  1.72E-10,  avg # of iterations = 11.4

     total cpu time spent up to now is      735.6 secs

     total energy              =   -4240.93727530 Ry
     estimated scf accuracy    <       0.00000109 Ry

     iteration # 13     ecut=    80.00 Ry     beta= 0.70
     Davidson diagonalization with overlap
     ethr =  1.72E-10,  avg # of iterations =  4.8

     total cpu time spent up to now is      785.1 secs

     total energy              =   -4240.93727542 Ry
     estimated scf accuracy    <       0.00000003 Ry

     iteration # 14     ecut=    80.00 Ry     beta= 0.70
     Davidson diagonalization with overlap
     ethr =  3.00E-11,  avg # of iterations =  6.0

     total cpu time spent up to now is      837.6 secs

     total energy              =   -4240.93727543 Ry
     estimated scf accuracy    <       0.00000001 Ry

     iteration # 15     ecut=    80.00 Ry     beta= 0.70
     Davidson diagonalization with overlap
     ethr =  1.67E-11,  avg # of iterations =  1.4

     total cpu time spent up to now is      872.9 secs

     total energy              =   -4240.93727543 Ry
     estimated scf accuracy    <          3.2E-09 Ry

     iteration # 16     ecut=    80.00 Ry     beta= 0.70
     Davidson diagonalization with overlap
     ethr =  3.86E-12,  avg # of iterations =  5.7

     total cpu time spent up to now is      922.6 secs

     total energy              =   -4240.93727543 Ry
     estimated scf accuracy    <          1.0E-09 Ry

     iteration # 17     ecut=    80.00 Ry     beta= 0.70
     Davidson diagonalization with overlap
     ethr =  1.21E-12,  avg # of iterations =  1.4

     total cpu time spent up to now is      958.0 secs

     total energy              =   -4240.93727543 Ry
     estimated scf accuracy    <          3.5E-10 Ry

     iteration # 18     ecut=    80.00 Ry     beta= 0.70
     Davidson diagonalization with overlap
     ethr =  4.13E-13,  avg # of iterations =  3.9

     total cpu time spent up to now is      997.9 secs

     End of self-consistent calculation

          k = 0.0000 0.0000 0.0000 ( 36359 PWs)   bands (ev):

   -44.1553 -44.1553 -22.2985 -22.2984 -22.1943 -22.1943 -22.0763 -22.0762
    -7.6489  -7.1720  -6.9577  -6.7729  -6.5730  -5.3128  -5.1244  -4.9092
    -4.8530  -3.8653   0.4528   0.6771   0.7784   1.0542   1.4873   1.6010
     2.4160   2.4993   2.6105   2.9994   3.0448   3.0908   3.1118   3.5027
     3.5536   3.5944   3.8555   4.0397   4.0991   4.2840   4.3179   4.6236
     5.1598   5.5567   5.5633   5.6047   5.8538   6.0480   6.4061   6.7916
     6.9348   7.2997

          k = 0.0000 0.0000 0.1485 ( 36415 PWs)   bands (ev):

   -44.1553 -44.1553 -22.2985 -22.2984 -22.1943 -22.1943 -22.0762 -22.0762
    -7.6098  -7.3187  -6.8622  -6.7803  -6.4491  -5.6940  -4.9302  -4.8650
    -4.7075  -3.9818   0.4928   0.7151   0.9100   1.0556   1.0570   2.0345
     2.1200   2.4399   2.5766   3.0471   3.0826   3.0868   3.3221   3.3646
     3.6707   3.6972   3.8330   4.0304   4.0524   4.3037   4.3299   4.6412
     4.9350   5.0615   5.7086   5.9158   6.0420   6.0684   6.5875   6.7032
     6.7706   7.2791

          k = 0.0000 0.0000-0.2971 ( 36410 PWs)   bands (ev):

   -44.1553 -44.1553 -22.2984 -22.2984 -22.1943 -22.1943 -22.0762 -22.0762
    -7.4953  -7.4953  -6.8038  -6.8038  -6.1186  -6.1186  -4.8943  -4.8943
    -4.2919  -4.2919   0.6728   0.6728   0.8502   0.8502   1.4541   1.4541
     2.5033   2.5033   2.7000   2.7000   3.0583   3.0583   3.3559   3.3559
     3.8232   3.8232   3.9000   3.9000   4.3166   4.3166   4.4230   4.4230
     4.7233   4.7233   5.9619   5.9619   6.2444   6.2444   6.3797   6.3797
     7.1666   7.1666

          k = 0.2541 0.0645 0.0000 ( 36396 PWs)   bands (ev):

   -44.1549 -44.1549 -22.2965 -22.2965 -22.2043 -22.2043 -22.0750 -22.0749
    -7.5353  -7.0875  -6.8562  -6.7272  -6.5144  -5.2796  -5.1110  -4.8685
    -4.8116  -4.0022   0.5402   0.8129   0.9158   1.1722   1.2764   1.4949
     1.9370   2.1235   2.2179   2.5228   2.5934   3.0018   3.4975   3.6480
     3.6684   3.6980   3.7402   3.8067   4.0310   4.1387   4.2096   4.2655
     4.4614   4.7196   5.6790   5.9972   6.2943   6.5410   6.6181   6.8349
     7.0011   7.1427

          k = 0.2541 0.0645 0.1485 ( 36423 PWs)   bands (ev):

   -44.1549 -44.1549 -22.2965 -22.2965 -22.2043 -22.2043 -22.0750 -22.0749
    -7.4973  -7.2180  -6.7930  -6.7335  -6.3775  -5.6387  -4.9081  -4.8257
    -4.7087  -4.0956   0.5678   0.8536   0.9784   0.9985   1.1379   1.6105
     1.8697   2.3092   2.4902   2.5410   2.5738   2.9160   3.2526   3.3010
     3.6496   3.6707   3.8197   3.8838   3.9964   4.0860   4.2219   4.2804
     4.6974   5.0530   5.8003   5.8140   6.2202   6.2757   6.4816   6.6700
     7.2653   7.2859

          k = 0.2541 0.0645-0.2971 ( 36436 PWs)   bands (ev):

   -44.1549 -44.1549 -22.2965 -22.2965 -22.2043 -22.2043 -22.0749 -22.0749
    -7.3863  -7.3863  -6.7525  -6.7525  -6.0469  -6.0469  -4.8605  -4.8605
    -4.3532  -4.3532   0.7047   0.7047   0.9573   0.9573   1.2990   1.2990
     2.2866   2.2866   2.6075   2.6075   2.7041   2.7041   3.0881   3.0881
     3.5864   3.5864   3.8512   3.8512   4.0229   4.0229   4.2759   4.2759
     5.1951   5.1951   5.7392   5.7392   6.0735   6.0735   6.4719   6.4719
     7.4366   7.4366

          k = 0.5081 0.1290 0.0000 ( 36499 PWs)   bands (ev):

   -44.1540 -44.1540 -22.2918 -22.2918 -22.2285 -22.2285 -22.0719 -22.0719
    -7.2184  -6.8886  -6.5975  -6.5649  -6.3216  -5.2247  -5.1226  -4.7615
    -4.7093  -4.4163   0.5077   0.7324   0.7459   1.1783   1.3086   1.4985
     1.6595   1.8281   1.9747   2.1580   2.1711   2.2792   2.4417   3.2254
     3.3451   3.4122   3.4542   3.5623   3.7670   3.8475   3.9689   4.1534
     4.6484   5.3360   5.3669   5.8539   5.9196   6.5360   6.5490   6.8350
     7.3757   7.5632

          k = 0.5081 0.1290 0.1485 ( 36476 PWs)   bands (ev):

   -44.1540 -44.1540 -22.2918 -22.2918 -22.2285 -22.2285 -22.0719 -22.0719
    -7.1848  -6.9610  -6.6027  -6.5945  -6.1588  -5.5074  -4.9279  -4.7378
    -4.6983  -4.4492   0.5115   0.7461   0.8923   1.0869   1.2169   1.4299
     1.4718   1.6769   2.0388   2.0677   2.3262   2.5551   2.8425   3.2572
     3.3363   3.4005   3.4715   3.5723   3.6336   3.7832   3.8476   4.2137
     4.4074   4.5953   6.0113   6.0792   6.2158   6.5447   6.5904   6.7137
     7.2211   7.4788

          k = 0.5081 0.1290-0.2971 ( 36466 PWs)   bands (ev):

   -44.1540 -44.1540 -22.2918 -22.2918 -22.2285 -22.2285 -22.0719 -22.0719
    -7.0899  -7.0899  -6.6061  -6.6061  -5.8509  -5.8509  -4.8094  -4.8094
    -4.5535  -4.5535   0.6189   0.6189   1.0979   1.0979   1.2558   1.2558
     1.3615   1.3615   2.0595   2.0595   2.7810   2.7810   3.1045   3.1045
     3.3287   3.3287   3.5451   3.5451   3.7053   3.7053   3.8398   3.8398
     4.3015   4.3015   6.2421   6.2421   6.5321   6.5321   6.7687   6.7687
     7.0857   7.0857

          k = 0.7622 0.1934 0.0000 ( 36521 PWs)   bands (ev):

   -44.1531 -44.1531 -22.2869 -22.2869 -22.2526 -22.2526 -22.0689 -22.0688
    -6.8340  -6.7165  -6.3349  -6.1308  -5.9685  -5.2825  -5.2780  -5.0546
    -4.6400  -4.6050   0.0044   0.2812   0.6587   1.1542   1.1612   1.2308
     1.4769   1.5898   1.9064   1.9493   2.2669   2.4291   2.5125   2.7398
     2.7644   3.2513   3.2860   3.3480   3.6420   3.6619   3.7789   3.8398
     3.9898   4.5666   5.7535   6.1609   6.2408   6.6711   6.7178   6.8112
     7.1968   7.5537

          k = 0.7622 0.1934 0.1485 ( 36503 PWs)   bands (ev):

   -44.1531 -44.1531 -22.2869 -22.2869 -22.2526 -22.2526 -22.0689 -22.0688
    -6.8165  -6.7325  -6.3285  -6.2203  -5.8272  -5.4179  -5.1940  -5.0753
    -4.6292  -4.6055   0.0792   0.3873   0.5409   0.9606   1.1650   1.2054
     1.4926   1.6638   1.7203   2.0871   2.1313   2.6443   2.6741   2.7936
     2.8611   3.1554   3.2720   3.3700   3.4694   3.6418   3.6826   3.8878
     4.0057   4.7499   5.3724   6.2343   6.5387   6.5800   6.7316   6.8961
     6.9714   7.4547

          k = 0.7622 0.1934-0.2971 ( 36522 PWs)   bands (ev):

   -44.1531 -44.1531 -22.2869 -22.2869 -22.2526 -22.2526 -22.0689 -22.0689
    -6.7738  -6.7738  -6.2980  -6.2980  -5.6129  -5.6129  -5.1272  -5.1272
    -4.6124  -4.6124   0.2783   0.2783   0.7029   0.7029   1.0687   1.0687
     1.5753   1.5753   1.9751   1.9751   2.3726   2.3726   2.7955   2.7955
     2.9910   2.9910   3.4048   3.4048   3.5671   3.5671   3.7867   3.7867
     4.1995   4.1995   5.9698   5.9698   6.3626   6.3626   6.8202   6.8202
     7.2953   7.2953

          k =-1.0162-0.2579 0.0000 ( 36506 PWs)   bands (ev):

   -44.1527 -44.1527 -22.2847 -22.2847 -22.2627 -22.2627 -22.0676 -22.0676
    -6.6834  -6.6633  -5.7755  -5.7649  -5.6591  -5.6462  -5.5506  -5.5506
    -4.5822  -4.5641   0.0870   0.1137   0.4369   0.4555   1.0130   1.0210
     1.4692   1.6758   2.2229   2.3414   2.3424   2.3439   2.7941   2.8296
     2.8329   2.9423   3.2553   3.2812   3.2827   3.5013   3.5898   3.6355
     3.8451   3.9217   6.3541   6.3847   6.4458   6.5310   6.9230   6.9885
     6.9988   7.0042

          k =-1.0162-0.2579 0.1485 ( 36506 PWs)   bands (ev):

   -44.1527 -44.1527 -22.2847 -22.2847 -22.2627 -22.2627 -22.0676 -22.0676
    -6.6798  -6.6656  -5.7788  -5.7696  -5.6774  -5.6725  -5.5212  -5.5186
    -4.5855  -4.5727  -0.0000   0.0089   0.6527   0.6572   1.0336   1.0606
     1.4637   1.5755   1.9206   1.9865   2.3638   2.3740   2.7540   2.7612
     2.9526   2.9647   3.1826   3.2255   3.5404   3.5516   3.7096   3.7325
     4.1154   4.1167   5.8472   5.8549   6.3783   6.4503   6.8837   6.9228
     7.2187   7.2412

          k =-1.0162-0.2579-0.2971 ( 36528 PWs)   bands (ev):

   -44.1527 -44.1527 -22.2847 -22.2847 -22.2627 -22.2627 -22.0676 -22.0676
    -6.6721  -6.6721  -5.7790  -5.7790  -5.6893  -5.6893  -5.4963  -5.4963
    -4.5852  -4.5852  -0.0548  -0.0548   0.8998   0.8998   1.0561   1.0561
     1.5202   1.5202   1.5972   1.5972   2.3658   2.3658   2.7888   2.7888
     2.9277   2.9277   3.2093   3.2093   3.5871   3.5871   3.7710   3.7710
     4.6137   4.6137   5.2551   5.2551   6.3452   6.3452   6.9215   6.9215
     7.2855   7.2855

          k = 0.5081 0.0000 0.0000 ( 36503 PWs)   bands (ev):

   -44.1540 -44.1540 -22.2918 -22.2918 -22.2285 -22.2285 -22.0719 -22.0719
    -7.2245  -6.8911  -6.5901  -6.5662  -6.3168  -5.2256  -5.1190  -4.7575
    -4.7144  -4.4159   0.5064   0.7293   0.7527   1.1454   1.3037   1.4779
     1.6646   1.8337   1.9861   2.1335   2.1470   2.2694   2.4502   3.2071
     3.3530   3.4009   3.5091   3.5871   3.7742   3.8335   4.0074   4.1909
     4.6506   5.3379   5.3728   5.8886   5.8991   6.4968   6.4972   6.8702
     7.4040   7.5701

          k = 0.5081 0.0000 0.1485 ( 36453 PWs)   bands (ev):

   -44.1540 -44.1540 -22.2918 -22.2918 -22.2285 -22.2285 -22.0719 -22.0719
    -7.1909  -6.9655  -6.5934  -6.5917  -6.1578  -5.5082  -4.9216  -4.7396
    -4.6993  -4.4500   0.5096   0.7409   0.8982   1.0887   1.1879   1.4291
     1.4494   1.6733   2.0337   2.0707   2.3268   2.5281   2.8348   3.2434
     3.3313   3.4303   3.4892   3.5934   3.6279   3.8306   3.8457   4.2487
     4.4228   4.5968   6.0124   6.0969   6.2196   6.4936   6.5552   6.7442
     7.2470   7.4829

          k = 0.5081 0.0000-0.2971 ( 36452 PWs)   bands (ev):

   -44.1540 -44.1540 -22.2918 -22.2918 -22.2285 -22.2285 -22.0719 -22.0719
    -7.0956  -7.0956  -6.5988  -6.5988  -5.8517  -5.8517  -4.8051  -4.8051
    -4.5562  -4.5562   0.6145   0.6145   1.0984   1.0984   1.2878   1.2878
     1.3057   1.3057   2.0592   2.0592   2.7719   2.7719   3.0812   3.0812
     3.3222   3.3222   3.6017   3.6017   3.7120   3.7120   3.8431   3.8431
     4.3263   4.3263   6.2575   6.2575   6.4978   6.4978   6.7831   6.7831
     7.0876   7.0876

          k = 0.7622 0.0645 0.0000 ( 36505 PWs)   bands (ev):

   -44.1531 -44.1531 -22.2869 -22.2869 -22.2526 -22.2526 -22.0689 -22.0688
    -6.8435  -6.7149  -6.3255  -6.1334  -5.9676  -5.2787  -5.2775  -5.0543
    -4.6338  -4.6125  -0.0017   0.2929   0.6839   1.1497   1.1889   1.2449
     1.4335   1.5453   1.8838   1.9614   2.2204   2.4061   2.4964   2.7134
     2.7456   3.3076   3.3204   3.3528   3.6020   3.6619   3.8324   3.8642
     4.0083   4.6100   5.7521   6.1767   6.2031   6.6380   6.7674   6.7751
     7.2207   7.5564

          k = 0.7622 0.0645 0.1485 ( 36509 PWs)   bands (ev):

   -44.1531 -44.1531 -22.2869 -22.2869 -22.2526 -22.2526 -22.0689 -22.0688
    -6.8249  -6.7332  -6.3194  -6.2182  -5.8288  -5.4184  -5.1903  -5.0743
    -4.6249  -4.6108   0.0765   0.3945   0.5504   0.9839   1.1658   1.2160
     1.4542   1.6609   1.7451   2.0169   2.0569   2.6549   2.6667   2.7619
     2.8504   3.1556   3.3398   3.3909   3.4303   3.6604   3.7110   3.9051
     4.0532   4.7491   5.3995   6.2186   6.5419   6.5671   6.7490   6.8938
     6.9525   7.4733

          k = 0.7622 0.0645-0.2971 ( 36472 PWs)   bands (ev):

   -44.1531 -44.1531 -22.2869 -22.2869 -22.2526 -22.2526 -22.0689 -22.0689
    -6.7791  -6.7791  -6.2912  -6.2912  -5.6148  -5.6148  -5.1247  -5.1247
    -4.6129  -4.6129   0.2814   0.2814   0.6991   0.6991   1.0947   1.0947
     1.5700   1.5700   1.9241   1.9241   2.3368   2.3368   2.7883   2.7883
     2.9878   2.9878   3.4724   3.4724   3.5635   3.5635   3.7790   3.7790
     4.2242   4.2242   5.9936   5.9936   6.3642   6.3642   6.7855   6.7855
     7.3214   7.3214

          k = 1.0162 0.1290 0.0000 ( 36514 PWs)   bands (ev):

   -44.1527 -44.1527 -22.2847 -22.2847 -22.2627 -22.2627 -22.0676 -22.0676
    -6.6834  -6.6633  -5.7749  -5.7654  -5.6592  -5.6462  -5.5515  -5.5497
    -4.5822  -4.5641   0.0811   0.1196   0.4309   0.4616   1.0080   1.0278
     1.4743   1.6671   2.2269   2.3250   2.3357   2.3504   2.7962   2.8267
     2.8634   2.9373   3.2270   3.2927   3.2995   3.5005   3.5721   3.6476
     3.8298   3.9328   6.3511   6.3889   6.4410   6.5363   6.9329   6.9913
     6.9940   7.0063

          k = 1.0162 0.1290 0.1485 ( 36524 PWs)   bands (ev):

   -44.1527 -44.1527 -22.2847 -22.2847 -22.2627 -22.2627 -22.0676 -22.0676
    -6.6798  -6.6656  -5.7784  -5.7701  -5.6775  -5.6723  -5.5216  -5.5182
    -4.5855  -4.5727  -0.0021   0.0105   0.6514   0.6592   1.0379   1.0575
     1.4679   1.5730   1.9249   1.9772   2.3563   2.3700   2.7095   2.8151
     2.9638   2.9845   3.1557   3.2282   3.5286   3.5877   3.7002   3.7084
     4.1031   4.1350   5.8360   5.8683   6.3756   6.4528   6.8906   6.9217
     7.2220   7.2380

          k = 1.0162 0.1290-0.2971 ( 36516 PWs)   bands (ev):

   -44.1527 -44.1527 -22.2847 -22.2847 -22.2627 -22.2627 -22.0676 -22.0676
    -6.6721  -6.6721  -5.7790  -5.7790  -5.6893  -5.6893  -5.4964  -5.4964
    -4.5852  -4.5852  -0.0550  -0.0550   0.8990   0.8990   1.0584   1.0584
     1.5187   1.5187   1.5990   1.5990   2.3555   2.3555   2.7717   2.7717
     2.9777   2.9777   3.1852   3.1852   3.5939   3.5939   3.7629   3.7629
     4.6141   4.6141   5.2569   5.2569   6.3449   6.3449   6.9239   6.9239
     7.2854   7.2854

          k =-0.7622-0.3224 0.0000 ( 36511 PWs)   bands (ev):

   -44.1531 -44.1531 -22.2869 -22.2869 -22.2526 -22.2526 -22.0689 -22.0688
    -6.8190  -6.7203  -6.3484  -6.1270  -5.9699  -5.2897  -5.2770  -5.0550
    -4.6453  -4.5980   0.0132   0.2652   0.6252   1.1278   1.1772   1.2114
     1.4997   1.6592   1.9341   1.9524   2.3468   2.4461   2.5367   2.7682
     2.7932   3.1652   3.2566   3.3742   3.5974   3.6559   3.7735   3.8105
     3.9555   4.4967   5.7559   6.1550   6.2851   6.6366   6.7216   6.8785
     7.1573   7.5549

          k =-0.7622-0.3224 0.1485 ( 36492 PWs)   bands (ev):

   -44.1531 -44.1531 -22.2869 -22.2869 -22.2526 -22.2526 -22.0689 -22.0688
    -6.8032  -6.7324  -6.3415  -6.2235  -5.8249  -5.4174  -5.1991  -5.0766
    -4.6326  -4.6005   0.0825   0.3787   0.5262   0.9344   1.1621   1.1971
     1.5466   1.6630   1.6914   2.1888   2.2378   2.6347   2.6838   2.8258
     2.8736   3.1750   3.1810   3.3537   3.4789   3.6241   3.6543   3.8593
     3.9258   4.7498   5.3360   6.2598   6.5182   6.5921   6.7191   6.9221
     6.9936   7.4226

          k =-0.7622-0.3224-0.2971 ( 36508 PWs)   bands (ev):

   -44.1531 -44.1531 -22.2869 -22.2869 -22.2526 -22.2526 -22.0689 -22.0689
    -6.7660  -6.7660  -6.3080  -6.3080  -5.6102  -5.6102  -5.1309  -5.1309
    -4.6118  -4.6118   0.2735   0.2735   0.7083   0.7083   1.0390   1.0390
     1.5804   1.5804   2.0350   2.0350   2.4400   2.4400   2.8095   2.8095
     2.9938   2.9938   3.3119   3.3119   3.5719   3.5719   3.7824   3.7824
     4.1662   4.1662   5.9382   5.9382   6.3590   6.3590   6.8792   6.8792
     7.2508   7.2508

          k =-0.5081-0.2579 0.0000 ( 36480 PWs)   bands (ev):

   -44.1540 -44.1540 -22.2918 -22.2918 -22.2285 -22.2285 -22.0719 -22.0719
    -7.2027  -6.8832  -6.6152  -6.5619  -6.3337  -5.2224  -5.1315  -4.7676
    -4.7004  -4.4173   0.5127   0.7302   0.7329   1.2732   1.3193   1.5501
     1.6522   1.8217   1.9489   2.1892   2.2386   2.2976   2.4246   3.2741
     3.3323   3.3426   3.4342   3.4706   3.7372   3.8562   3.9127   4.0778
     4.6400   5.3269   5.3552   5.7716   5.9723   6.6346   6.6692   6.7506
     7.3025   7.5688

          k =-0.5081-0.2579 0.1485 ( 36485 PWs)   bands (ev):

   -44.1540 -44.1540 -22.2918 -22.2918 -22.2285 -22.2285 -22.0719 -22.0719
    -7.1693  -6.9499  -6.6213  -6.6060  -6.1610  -5.5053  -4.9423  -4.7352
    -4.6955  -4.4472   0.5170   0.7544   0.8783   1.0831   1.2976   1.4305
     1.5329   1.6822   2.0509   2.0647   2.3250   2.6141   2.8604   3.2884
     3.3051   3.3483   3.4560   3.4871   3.6323   3.7408   3.8273   4.1395
     4.3624   4.5912   5.9877   6.0564   6.2093   6.6367   6.6638   6.6868
     7.1556   7.4725

          k =-0.5081-0.2579-0.2971 ( 36478 PWs)   bands (ev):

   -44.1540 -44.1540 -22.2918 -22.2918 -22.2285 -22.2285 -22.0719 -22.0719
    -7.0752  -7.0752  -6.6243  -6.6243  -5.8490  -5.8490  -4.8194  -4.8194
    -4.5472  -4.5472   0.6291   0.6291   1.0960   1.0960   1.2315   1.2315
     1.4520   1.4520   2.0588   2.0588   2.8053   2.8053   3.1641   3.1641
     3.3421   3.3421   3.4021   3.4021   3.6958   3.6958   3.8284   3.8284
     4.2399   4.2399   6.2036   6.2036   6.6047   6.6047   6.7421   6.7421
     7.0858   7.0858

          k =-0.2541-0.1934 0.0000 ( 36410 PWs)   bands (ev):

   -44.1549 -44.1549 -22.2965 -22.2965 -22.2043 -22.2043 -22.0750 -22.0749
    -7.5242  -7.0772  -6.8540  -6.7418  -6.5310  -5.2782  -5.1183  -4.8758
    -4.8023  -4.0032   0.5714   0.8871   0.9252   1.1969   1.3082   1.4956
     1.9588   2.1426   2.2228   2.4871   2.5730   3.0709   3.4011   3.5429
     3.5963   3.6889   3.7887   3.7993   3.9583   4.1330   4.1850   4.2293
     4.4010   4.6902   5.7280   6.0128   6.3367   6.5855   6.6031   6.8534
     6.9967   7.0668

          k =-0.2541-0.1934 0.1485 ( 36427 PWs)   bands (ev):

   -44.1549 -44.1549 -22.2965 -22.2965 -22.2043 -22.2043 -22.0750 -22.0749
    -7.4861  -7.2069  -6.8014  -6.7476  -6.3846  -5.6374  -4.9260  -4.8210
    -4.7020  -4.0954   0.5935   0.9107   1.0081   1.0343   1.1594   1.6275
     1.8712   2.3112   2.5029   2.5078   2.5781   2.9126   3.2543   3.3322
     3.5184   3.6449   3.7302   3.8839   3.9706   4.0695   4.1749   4.2268
     4.6807   5.0344   5.7850   5.8283   6.1902   6.3244   6.5620   6.6846
     7.2202   7.2795

          k =-0.2541-0.1934-0.2971 ( 36422 PWs)   bands (ev):

   -44.1549 -44.1549 -22.2965 -22.2965 -22.2043 -22.2043 -22.0749 -22.0749
    -7.3751  -7.3751  -6.7664  -6.7664  -6.0472  -6.0472  -4.8668  -4.8668
    -4.3500  -4.3500   0.7232   0.7232   1.0231   1.0231   1.3086   1.3086
     2.2855   2.2855   2.5750   2.5750   2.7181   2.7181   3.1193   3.1193
     3.5063   3.5063   3.7993   3.7993   4.0151   4.0151   4.2189   4.2189
     5.1902   5.1902   5.6998   5.6998   6.0636   6.0636   6.5612   6.5612
     7.4110   7.4110

          k = 0.0000-0.1290 0.0000 ( 36417 PWs)   bands (ev):

   -44.1553 -44.1553 -22.2985 -22.2984 -22.1943 -22.1943 -22.0763 -22.0762
    -7.6430  -7.1656  -6.9565  -6.7811  -6.5830  -5.3123  -5.1283  -4.9146
    -4.8468  -3.8659   0.4782   0.7194   0.7841   1.0586   1.5116   1.6114
     2.4196   2.4997   2.6175   3.0073   3.0400   3.1098   3.1288   3.4527
     3.4850   3.5837   3.7872   4.0150   4.0991   4.2317   4.2680   4.6248
     5.1521   5.5101   5.5893   5.6119   5.8673   6.0906   6.4586   6.7624
     6.9355   7.2811

          k = 0.0000-0.1290 0.1485 ( 36419 PWs)   bands (ev):

   -44.1553 -44.1553 -22.2985 -22.2984 -22.1943 -22.1943 -22.0762 -22.0762
    -7.6039  -7.3127  -6.8657  -6.7881  -6.4543  -5.6935  -4.9409  -4.8616
    -4.7039  -3.9818   0.5147   0.7574   0.9259   1.0481   1.0815   2.0431
     2.1350   2.4439   2.5830   3.0425   3.0838   3.1053   3.2788   3.3360
     3.6678   3.6885   3.7604   3.9797   4.0508   4.2572   4.2834   4.6424
     4.9324   5.0480   5.7164   5.9187   6.0548   6.0837   6.5757   6.7431
     6.7716   7.2649

          k = 0.0000-0.1290-0.2971 ( 36464 PWs)   bands (ev):

   -44.1553 -44.1553 -22.2984 -22.2984 -22.1943 -22.1943 -22.0762 -22.0762
    -7.4894  -7.4894  -6.8111  -6.8111  -6.1193  -6.1193  -4.8976  -4.8976
    -4.2904  -4.2904   0.7012   0.7012   0.8666   0.8666   1.4636   1.4636
     2.5083   2.5083   2.7104   2.7104   3.0543   3.0543   3.3182   3.3182
     3.7939   3.7939   3.8948   3.8948   4.2325   4.2325   4.4355   4.4355
     4.7237   4.7237   5.9488   5.9488   6.2683   6.2683   6.3811   6.3811
     7.1709   7.1709

          k = 1.0162 0.0000 0.0000 ( 36499 PWs)   bands (ev):

   -44.1527 -44.1527 -22.2847 -22.2847 -22.2627 -22.2627 -22.0676 -22.0676
    -6.6834  -6.6633  -5.7743  -5.7661  -5.6592  -5.6462  -5.5519  -5.5493
    -4.5822  -4.5641   0.0767   0.1242   0.4268   0.4659   1.0055   1.0321
     1.4799   1.6578   2.2318   2.3083   2.3332   2.3538   2.7998   2.8189
     2.9098   2.9186   3.2145   3.2983   3.3065   3.4938   3.5588   3.6649
     3.8110   3.9429   6.3486   6.3925   6.4366   6.5412   6.9453   6.9869
     6.9941   7.0086

          k = 1.0162 0.0000 0.1485 ( 36485 PWs)   bands (ev):

   -44.1527 -44.1527 -22.2847 -22.2847 -22.2627 -22.2627 -22.0676 -22.0676
    -6.6798  -6.6656  -5.7779  -5.7706  -5.6777  -5.6722  -5.5219  -5.5179
    -4.5855  -4.5727  -0.0037   0.0118   0.6505   0.6607   1.0455   1.0509
     1.4726   1.5702   1.9314   1.9656   2.3506   2.3649   2.6943   2.8335
     2.9718   3.0316   3.1116   3.2296   3.5270   3.6358   3.6600   3.6933
     4.0991   4.1448   5.8308   5.8757   6.3731   6.4551   6.8989   6.9193
     7.2287   7.2315

          k = 1.0162 0.0000-0.2971 ( 36514 PWs)   bands (ev):

   -44.1527 -44.1527 -22.2847 -22.2847 -22.2627 -22.2627 -22.0676 -22.0676
    -6.6721  -6.6721  -5.7790  -5.7790  -5.6893  -5.6893  -5.4964  -5.4964
    -4.5852  -4.5852  -0.0551  -0.0551   0.8983   0.8983   1.0608   1.0608
     1.5173   1.5173   1.6007   1.6007   2.3455   2.3455   2.7601   2.7601
     3.0354   3.0354   3.1477   3.1477   3.6010   3.6010   3.7542   3.7542
     4.6144   4.6144   5.2588   5.2588   6.3446   6.3446   6.9263   6.9263
     7.2853   7.2853

          k = 1.2703 0.0645 0.0000 ( 36468 PWs)   bands (ev):

   -44.1531 -44.1531 -22.2869 -22.2869 -22.2526 -22.2526 -22.0689 -22.0688
    -6.8066  -6.7247  -6.3580  -6.1242  -5.9710  -5.2947  -5.2763  -5.0553
    -4.6479  -4.5940   0.0195   0.2541   0.6027   1.1189   1.1883   1.1962
     1.5033   1.7085   1.9246   1.9944   2.4132   2.4491   2.5552   2.7832
     2.8134   3.0877   3.2642   3.4436   3.5478   3.5497   3.7930   3.8337
     3.9264   4.4380   5.7577   6.1563   6.3165   6.5792   6.7606   6.9338
     7.1214   7.7121

          k = 1.2703 0.0645 0.1485 ( 36490 PWs)   bands (ev):

   -44.1531 -44.1531 -22.2869 -22.2869 -22.2526 -22.2526 -22.0689 -22.0688
    -6.7923  -6.7336  -6.3509  -6.2258  -5.8232  -5.4170  -5.2026  -5.0775
    -4.6344  -4.5977   0.0845   0.3739   0.5147   0.9194   1.1574   1.1962
     1.6000   1.6497   1.6683   2.2660   2.3154   2.6325   2.6894   2.8432
     2.8815   3.0989   3.2210   3.3606   3.4268   3.5841   3.7155   3.8221
     3.8496   4.7488   5.3117   6.2824   6.4872   6.5999   6.7207   6.9535
     7.0077   7.3955

          k = 1.2703 0.0645-0.2971 ( 36480 PWs)   bands (ev):

   -44.1531 -44.1531 -22.2869 -22.2869 -22.2526 -22.2526 -22.0689 -22.0689
    -6.7602  -6.7602  -6.3152  -6.3152  -5.6083  -5.6083  -5.1335  -5.1335
    -4.6114  -4.6114   0.2699   0.2699   0.7121   0.7121   1.0218   1.0218
     1.5836   1.5836   2.0673   2.0673   2.5005   2.5005   2.8357   2.8357
     2.9867   2.9867   3.2364   3.2364   3.5807   3.5807   3.7689   3.7689
     4.1445   4.1445   5.9171   5.9171   6.3557   6.3557   6.9319   6.9319
     7.2099   7.2099

          k =-0.5081-0.3869 0.0000 ( 36463 PWs)   bands (ev):

   -44.1540 -44.1540 -22.2918 -22.2918 -22.2285 -22.2285 -22.0719 -22.0719
    -7.1856  -6.8791  -6.6320  -6.5589  -6.3467  -5.2201  -5.1404  -4.7711
    -4.6941  -4.4183   0.5205   0.7156   0.7244   1.3287   1.4116   1.5921
     1.6389   1.8317   1.9164   2.2314   2.2685   2.3037   2.4271   3.2082
     3.3205   3.3519   3.3633   3.4793   3.7012   3.7679   3.8909   4.0648
     4.6290   5.3070   5.3459   5.6942   6.0306   6.6656   6.7472   6.7846
     7.2145   7.5600

          k =-0.5081-0.3869 0.1485 ( 36477 PWs)   bands (ev):

   -44.1540 -44.1540 -22.2918 -22.2918 -22.2285 -22.2285 -22.0719 -22.0719
    -7.1524  -6.9386  -6.6383  -6.6209  -6.1631  -5.5032  -4.9556  -4.7343
    -4.6918  -4.4453   0.5236   0.7570   0.8646   1.0795   1.4047   1.4367
     1.5823   1.6884   2.0630   2.0722   2.3167   2.6622   2.8800   3.1795
     3.3213   3.3461   3.3848   3.4898   3.6371   3.7157   3.7743   4.1041
     4.2984   4.5874   5.9334   6.0637   6.2062   6.5709   6.7659   6.8034
     7.0760   7.4776

          k =-0.5081-0.3869-0.2971 ( 36492 PWs)   bands (ev):

   -44.1540 -44.1540 -22.2918 -22.2918 -22.2285 -22.2285 -22.0719 -22.0719
    -7.0592  -7.0592  -6.6438  -6.6437  -5.8469  -5.8469  -4.8290  -4.8290
    -4.5414  -4.5414   0.6385   0.6385   1.0927   1.0927   1.2172   1.2172
     1.5482   1.5482   2.0534   2.0534   2.8320   2.8320   3.2060   3.2060
     3.2766   3.2766   3.3632   3.3632   3.6732   3.6732   3.8173   3.8173
     4.1765   4.1765   6.1657   6.1657   6.6330   6.6330   6.7530   6.7530
     7.0960   7.0960

          k =-0.2541-0.3224 0.0000 ( 36485 PWs)   bands (ev):

   -44.1549 -44.1549 -22.2965 -22.2965 -22.2043 -22.2043 -22.0750 -22.0749
    -7.5075  -7.0628  -6.8510  -6.7610  -6.5566  -5.2763  -5.1291  -4.8810
    -4.7939  -4.0047   0.5985   0.9395   1.0149   1.2461   1.3804   1.4936
     1.9932   2.1741   2.2248   2.4047   2.5180   3.1897   3.2550   3.3580
     3.5427   3.6862   3.7532   3.8256   3.9397   4.0646   4.1401   4.1883
     4.3955   4.6255   5.8059   6.0273   6.3735   6.5371   6.6884   6.8808
     6.9444   7.0068

          k =-0.2541-0.3224 0.1485 ( 36445 PWs)   bands (ev):

   -44.1549 -44.1549 -22.2965 -22.2965 -22.2043 -22.2043 -22.0750 -22.0749
    -7.4694  -7.1903  -6.8156  -6.7674  -6.3944  -5.6356  -4.9474  -4.8178
    -4.6932  -4.0950   0.6134   0.9567   1.0596   1.1282   1.2330   1.6528
     1.8785   2.3050   2.4221   2.5049   2.5854   2.9011   3.2752   3.3311
     3.3496   3.5140   3.7559   3.8805   3.9237   4.0635   4.0932   4.1523
     4.6842   4.9991   5.7689   5.8516   6.1792   6.3116   6.6649   6.7224
     7.1651   7.2702

          k =-0.2541-0.3224-0.2971 ( 36442 PWs)   bands (ev):

   -44.1549 -44.1549 -22.2965 -22.2965 -22.2043 -22.2043 -22.0749 -22.0749
    -7.3583  -7.3583  -6.7871  -6.7871  -6.0474  -6.0474  -4.8757  -4.8757
    -4.3457  -4.3457   0.7339   0.7339   1.1548   1.1548   1.3228   1.3228
     2.2790   2.2790   2.5119   2.5119   2.7299   2.7299   3.1758   3.1758
     3.3330   3.3330   3.7925   3.7925   4.0078   4.0078   4.1382   4.1382
     5.1865   5.1865   5.6580   5.6580   6.0349   6.0349   6.6690   6.6690
     7.3766   7.3766

          k = 0.0000-0.2579 0.0000 ( 36445 PWs)   bands (ev):

   -44.1553 -44.1553 -22.2985 -22.2984 -22.1943 -22.1943 -22.0763 -22.0762
    -7.6283  -7.1498  -6.9538  -6.7999  -6.6088  -5.3110  -5.1381  -4.9222
    -4.8367  -3.8675   0.5254   0.7983   0.8357   1.0990   1.5661   1.6354
     2.4286   2.4982   2.6353   3.0280   3.0406   3.1052   3.2289   3.2530
     3.2632   3.5576   3.7324   3.9877   4.0915   4.0989   4.1435   4.6280
     5.1338   5.4422   5.6293   5.6566   5.9003   6.1524   6.5577   6.6789
     6.9372   7.2427

          k = 0.0000-0.2579 0.1485 ( 36452 PWs)   bands (ev):

   -44.1553 -44.1553 -22.2985 -22.2984 -22.1943 -22.1943 -22.0762 -22.0762
    -7.5891  -7.2973  -6.8757  -6.8067  -6.4667  -5.6923  -4.9627  -4.8570
    -4.6957  -3.9817   0.5507   0.8653   0.9829   1.0803   1.1104   2.0659
     2.1688   2.4537   2.5989   3.0311   3.0763   3.1020   3.1772   3.2013
     3.6395   3.6674   3.6750   3.9262   4.0467   4.1361   4.1721   4.6456
     4.9261   5.0281   5.7425   5.9262   6.0788   6.0997   6.5408   6.7738
     6.8169   7.2279

          k = 0.0000-0.2579-0.2971 ( 36454 PWs)   bands (ev):

   -44.1553 -44.1553 -22.2984 -22.2984 -22.1943 -22.1943 -22.0762 -22.0762
    -7.4744  -7.4744  -6.8293  -6.8293  -6.1208  -6.1208  -4.9055  -4.9055
    -4.2868  -4.2868   0.7351   0.7351   0.9552   0.9552   1.4875   1.4875
     2.5206   2.5206   2.7278   2.7278   3.0442   3.0442   3.1701   3.1701
     3.7684   3.7684   3.8819   3.8819   4.0945   4.0945   4.4287   4.4287
     4.7248   4.7248   5.9190   5.9190   6.3075   6.3075   6.3849   6.3849
     7.1615   7.1615

          k = 1.5243 0.0000 0.0000 ( 36439 PWs)   bands (ev):

   -44.1540 -44.1540 -22.2918 -22.2918 -22.2285 -22.2285 -22.0719 -22.0719
    -7.1780  -6.8781  -6.6387  -6.5576  -6.3523  -5.2192  -5.1441  -4.7720
    -4.6919  -4.4187   0.5248   0.7098   0.7184   1.3323   1.5412   1.5546
     1.6204   1.8327   1.9154   2.2589   2.2614   2.2957   2.4403   3.1554
     3.2954   3.3343   3.3768   3.5521   3.6619   3.6894   3.8853   4.0787
     4.6240   5.2937   5.3427   5.6649   6.0571   6.6294   6.8130   6.8223
     7.1681   7.5596

          k = 1.5243 0.0000 0.1485 ( 36476 PWs)   bands (ev):

   -44.1540 -44.1540 -22.2918 -22.2918 -22.2285 -22.2285 -22.0719 -22.0719
    -7.1449  -6.9339  -6.6445  -6.6284  -6.1639  -5.5023  -4.9609  -4.7342
    -4.6901  -4.4446   0.5267   0.7565   0.8589   1.0781   1.4260   1.5004
     1.5587   1.7038   2.0748   2.0751   2.3076   2.6754   2.8929   3.1266
     3.2792   3.3598   3.3723   3.5761   3.5857   3.7014   3.7359   4.1149
     4.2580   4.5860   5.9075   6.0707   6.2055   6.5426   6.8112   6.8652
     7.0277   7.4887

          k = 1.5243 0.0000-0.2971 ( 36508 PWs)   bands (ev):

   -44.1540 -44.1540 -22.2918 -22.2918 -22.2285 -22.2285 -22.0719 -22.0719
    -7.0522  -7.0522  -6.6523  -6.6523  -5.8460  -5.8460  -4.8329  -4.8329
    -4.5390  -4.5390   0.6422   0.6422   1.0910   1.0910   1.2124   1.2124
     1.5939   1.5939   2.0483   2.0483   2.8436   2.8436   3.1612   3.1612
     3.2963   3.2963   3.3685   3.3685   3.6538   3.6538   3.8141   3.8141
     4.1501   4.1501   6.1503   6.1503   6.6277   6.6277   6.7710   6.7710
     7.1048   7.1048

          k =-0.2541-0.4514 0.0000 ( 36444 PWs)   bands (ev):

   -44.1549 -44.1549 -22.2965 -22.2965 -22.2043 -22.2043 -22.0750 -22.0749
    -7.4950  -7.0529  -6.8489  -6.7730  -6.5767  -5.2749  -5.1370  -4.8826
    -4.7899  -4.0058   0.6066   0.9503   1.1262   1.2851   1.4699   1.4903
     2.0318   2.1994   2.2143   2.3104   2.4401   3.1496   3.2337   3.2973
     3.5441   3.6863   3.7420   3.7562   3.9431   4.0149   4.1091   4.1622
     4.4551   4.5405   5.8703   6.0345   6.3911   6.4966   6.7410   6.8756
     6.9028   6.9973

          k =-0.2541-0.4514 0.1485 ( 36461 PWs)   bands (ev):

   -44.1549 -44.1549 -22.2965 -22.2965 -22.2043 -22.2043 -22.0750 -22.0749
    -7.4568  -7.1778  -6.8271  -6.7814  -6.4011  -5.6343  -4.9609  -4.8167
    -4.6874  -4.0948   0.6180   0.9741   1.0723   1.2636   1.3130   1.6739
     1.8935   2.2791   2.3261   2.4714   2.5979   2.8885   3.2192   3.2328
     3.3677   3.5188   3.7826   3.8337   3.9003   4.0004   4.0786   4.1144
     4.7021   4.9663   5.7605   5.8710   6.1895   6.2627   6.7323   6.7490
     7.1335   7.2636

          k =-0.2541-0.4514-0.2971 ( 36490 PWs)   bands (ev):

   -44.1549 -44.1549 -22.2965 -22.2965 -22.2043 -22.2043 -22.0749 -22.0749
    -7.3456  -7.3456  -6.8026  -6.8026  -6.0474  -6.0474  -4.8819  -4.8819
    -4.3427  -4.3427   0.7351   0.7351   1.2747   1.2747   1.3414   1.3414
     2.2565   2.2565   2.4485   2.4485   2.7358   2.7358   3.1949   3.1949
     3.2449   3.2449   3.7873   3.7873   4.0020   4.0020   4.0879   4.0879
     5.1857   5.1857   5.6341   5.6341   6.0089   6.0089   6.7340   6.7340
     7.3541   7.3541

          k = 0.0000-0.3869 0.0000 ( 36477 PWs)   bands (ev):

   -44.1553 -44.1553 -22.2985 -22.2984 -22.1943 -22.1943 -22.0763 -22.0762
    -7.6127  -7.1337  -6.9511  -6.8166  -6.6377  -5.3096  -5.1485  -4.9254
    -4.8305  -3.8691   0.5492   0.8131   0.9952   1.1648   1.6314   1.6578
     2.4379   2.4873   2.6544   2.9618   3.0151   3.0289   3.0927   3.1006
     3.3675   3.5309   3.7579   3.9098   3.9717   4.0085   4.0986   4.6315
     5.1160   5.4041   5.6467   5.7339   5.9353   6.1878   6.5755   6.6286
     6.9387   7.2112

          k = 0.0000-0.3869 0.1485 ( 36452 PWs)   bands (ev):

   -44.1553 -44.1553 -22.2985 -22.2984 -22.1943 -22.1943 -22.0762 -22.0762
    -7.5735  -7.2811  -6.8881  -6.8249  -6.4789  -5.6910  -4.9814  -4.8549
    -4.6882  -3.9816   0.5635   0.9803   1.0343   1.1324   1.1991   2.0924
     2.1964   2.4639   2.6158   2.8939   2.9286   3.0188   3.0684   3.2866
     3.6172   3.6461   3.6765   3.9082   4.0061   4.0425   4.0593   4.6490
     4.9198   5.0188   5.7782   5.9343   6.0889   6.0998   6.4989   6.7760
     6.8653   7.1917

          k = 0.0000-0.3869-0.2971 ( 36454 PWs)   bands (ev):

   -44.1553 -44.1553 -22.2985 -22.2985 -22.1943 -22.1943 -22.0762 -22.0762
    -7.4585  -7.4585  -6.8487  -6.8487  -6.1221  -6.1221  -4.9135  -4.9135
    -4.2832  -4.2832   0.7376   0.7376   1.1051   1.1051   1.5137   1.5137
     2.5336   2.5336   2.6891   2.6891   3.0104   3.0104   3.0336   3.0336
     3.7804   3.7804   3.8689   3.8689   3.9864   3.9864   4.4157   4.4157
     4.7261   4.7261   5.8872   5.8872   6.3314   6.3314   6.3889   6.3889
     7.1358   7.1358

          k =-2.0325 0.0000 0.0000 ( 36452 PWs)   bands (ev):

   -44.1553 -44.1553 -22.2985 -22.2984 -22.1943 -22.1943 -22.0763 -22.0762
    -7.6059  -7.1271  -6.9499  -6.8226  -6.6510  -5.3090  -5.1529  -4.9259
    -4.8287  -3.8698   0.5529   0.8194   1.1038   1.1689   1.6666   1.6727
     2.4418   2.4766   2.6628   2.8165   2.9335   3.0095   3.0987   3.1216
     3.4620   3.5196   3.7836   3.7972   3.9471   3.9599   4.0984   4.6330
     5.1087   5.3933   5.6540   5.7705   5.9514   6.1983   6.5251   6.6519
     6.9393   7.1994

          k =-2.0325 0.0000 0.1485 ( 36456 PWs)   bands (ev):

   -44.1553 -44.1553 -22.2985 -22.2984 -22.1943 -22.1943 -22.0762 -22.0762
    -7.5667  -7.2740  -6.8940  -6.8323  -6.4839  -5.6905  -4.9885  -4.8544
    -4.6853  -3.9816   0.5637   1.0222   1.0454   1.1723   1.2654   2.1038
     2.2065   2.4682   2.6232   2.7662   2.8244   3.0135   3.0650   3.3481
     3.5965   3.6373   3.7002   3.8801   3.9568   4.0178   4.0406   4.6504
     4.9172   5.0170   5.7972   5.9378   6.0757   6.1081   6.4805   6.7769
     6.8790   7.1777

          k =-2.0325 0.0000-0.2971 ( 36460 PWs)   bands (ev):

   -44.1553 -44.1553 -22.2985 -22.2985 -22.1943 -22.1943 -22.0762 -22.0762
    -7.4516  -7.4516  -6.8570  -6.8570  -6.1225  -6.1225  -4.9168  -4.9168
    -4.2818  -4.2818   0.7351   0.7351   1.1846   1.1846   1.5262   1.5262
     2.5391   2.5391   2.6237   2.6237   2.9766   2.9766   3.0290   3.0290
     3.7845   3.7845   3.8636   3.8636   3.9497   3.9497   4.4107   4.4107
     4.7266   4.7266   5.8728   5.8728   6.3385   6.3385   6.3907   6.3907
     7.1230   7.1230

     the Fermi energy is     5.3076 ev

!    total energy              =   -4240.93727543 Ry

     total all-electron energy =   -150287.630970 Ry
     estimated scf accuracy    <          7.2E-11 Ry
     smearing contrib. (-TS)   =       0.00000388 Ry
     internal energy E=F+TS    =   -4240.93727931 Ry

     The total energy is F=E-TS. E is the sum of the following terms:
     one-electron contribution =    -164.94526766 Ry
     hartree contribution      =     115.94032866 Ry
     xc contribution           =    -201.41640526 Ry
     ewald contribution        =    -223.00666402 Ry
     one-center paw contrib.   =   -3767.50927102 Ry

     convergence has been achieved in  18 iterations

     Forces acting on atoms (cartesian axes, Ry/au):

     atom    1 type  1   force =     0.00000000   -0.02052827    0.00000000
     atom    2 type  1   force =     0.00000000    0.02052827    0.00000000
     atom    3 type  2   force =     0.00000000    0.00178892    0.00000000
     atom    4 type  2   force =    -0.00000000   -0.00178892    0.00000000
     atom    5 type  2   force =     0.00000000    0.00448287    0.00017072
     atom    6 type  2   force =     0.00000000   -0.00448287   -0.00017072
     atom    7 type  2   force =     0.00000000    0.00448287   -0.00017072
     atom    8 type  2   force =     0.00000000   -0.00448287    0.00017072
     atom    9 type  2   force =     0.00000000    0.01866502    0.01477034
     atom   10 type  2   force =    -0.00000000   -0.01866502   -0.01477034
     atom   11 type  2   force =     0.00000000    0.01866502   -0.01477034
     atom   12 type  2   force =     0.00000000   -0.01866502    0.01477034

     Total force =     0.056532     Total SCF correction =     0.000012


     Computing stress (Cartesian axis) and pressure

          total   stress  (Ry/bohr**3)                   (kbar)     P=       -4.65
  -0.00001844   0.00000000   0.00000000           -2.71        0.00        0.00
   0.00000000  -0.00003006   0.00000000            0.00       -4.42        0.00
   0.00000000   0.00000000  -0.00004635            0.00        0.00       -6.82

 
     init_run     :     18.88s CPU     19.36s WALL (       1 calls)
     electrons    :    967.09s CPU    978.26s WALL (       1 calls)
     forces       :      6.35s CPU      6.56s WALL (       1 calls)
     stress       :     44.01s CPU     44.56s WALL (       1 calls)

     Called by init_run:
     wfcinit      :     14.41s CPU     14.58s WALL (       1 calls)
     potinit      :      1.46s CPU      1.50s WALL (       1 calls)
     hinit0       :      1.73s CPU      1.79s WALL (       1 calls)

     Called by electrons:
     c_bands      :    810.13s CPU    813.61s WALL (      19 calls)
     sum_band     :    130.74s CPU    134.86s WALL (      19 calls)
     v_of_rho     :      5.71s CPU      6.00s WALL (      19 calls)
     newd         :     14.47s CPU     17.91s WALL (      19 calls)
     PAW_pot      :      6.04s CPU      6.05s WALL (      19 calls)
     mix_rho      :      0.89s CPU      0.92s WALL (      19 calls)

     Called by c_bands:
     init_us_2    :     11.61s CPU     11.66s WALL (    2583 calls)
     cegterg      :    731.56s CPU    734.56s WALL (    1197 calls)

     Called by *egterg:
     cdiaghg      :     27.71s CPU     27.79s WALL (    8287 calls)
     h_psi        :    559.01s CPU    561.82s WALL (    8413 calls)
     s_psi        :     46.51s CPU     46.59s WALL (    8413 calls)
     g_psi        :      2.06s CPU      2.07s WALL (    7153 calls)

     Called by h_psi:
     h_psi:calbec :     40.10s CPU     40.17s WALL (    8413 calls)
     vloc_psi     :    469.28s CPU    471.87s WALL (    8413 calls)
     add_vuspsi   :     46.36s CPU     46.41s WALL (    8413 calls)

     General routines
     calbec       :     52.44s CPU     52.54s WALL (    9925 calls)
     fft          :      3.35s CPU      3.48s WALL (     271 calls)
     ffts         :      0.09s CPU      0.09s WALL (      38 calls)
     fftw         :    430.46s CPU    432.76s WALL (  441696 calls)
     interpolate  :      0.31s CPU      0.31s WALL (      19 calls)
 
     Parallel routines
 
     PWSCF        :  17m16.58s CPU  17m29.06s WALL

 
   This run was terminated on:  15:36:35  19Nov2021            

=------------------------------------------------------------------------------=
   JOB DONE.
=------------------------------------------------------------------------------=
