
     Program PWSCF v.6.8 starts on 19Nov2021 at 15:24:25 

     This program is part of the open-source Quantum ESPRESSO suite
     for quantum simulation of materials; please cite
         "P. Giannozzi et al., J. Phys.:Condens. Matter 21 395502 (2009);
         "P. Giannozzi et al., J. Phys.:Condens. Matter 29 465901 (2017);
         "P. Giannozzi et al., J. Chem. Phys. 152 154105 (2020);
          URL http://www.quantum-espresso.org", 
     in publications or presentations arising from this work. More details at
     http://www.quantum-espresso.org/quote

     Parallel version (MPI), running on    10 processors

     MPI processes distributed on     1 nodes
     R & G space division:  proc/nbgrp/npool/nimage =      10
     82589 MiB available memory on the printing compute node when the environment starts
 
     Waiting for input...
     Reading input from standard input

     Current dimensions of program PWSCF are:
     Max number of different atomic species (ntypx) = 10
     Max number of k-points (npk) =  40000
     Max angular momentum in pseudopotentials (lmaxx) =  4
     file Zr.pbe-spn-kjpaw_psl.1.0.0.UPF: wavefunction(s)  4S 4P renormalized
     file Te.pbe-n-kjpaw_psl.1.0.0.UPF: wavefunction(s)  5S 5P renormalized
     Message from routine setup:
     using ibrav=0 with symmetry is DISCOURAGED, use correct ibrav instead

     Subspace diagonalization in iterative solution of the eigenvalue problem:
     a serial algorithm will be used

 
     Parallelization info
     --------------------
     sticks:   dense  smooth     PW     G-vecs:    dense   smooth      PW
     Min         734     293     87               115340    29174    4753
     Max         735     295     88               115345    29176    4760
     Sum        7345    2937    873              1153415   291749   47557
 
     Using Slab Decomposition
 


     bravais-lattice index     =            0
     lattice parameter (alat)  =      15.5510  a.u.
     unit-cell volume          =    3018.5011 (a.u.)^3
     number of atoms/cell      =           12
     number of atomic types    =            2
     number of electrons       =        84.00
     number of Kohn-Sham states=           50
     kinetic-energy cutoff     =      80.0000  Ry
     charge density cutoff     =     800.0000  Ry
     scf convergence threshold =      1.0E-10
     mixing beta               =       0.7000
     number of iterations used =            8  plain     mixing
     Exchange-correlation= SLA  PW   PBX  PBC
                           (   1   4   3   4   0   0   0)

     celldm(1)=  15.551040  celldm(2)=   0.000000  celldm(3)=   0.000000
     celldm(4)=   0.000000  celldm(5)=   0.000000  celldm(6)=   0.000000

     crystal axes: (cart. coord. in units of alat)
               a(1) = (   0.246007  -0.969268   0.000000 )  
               a(2) = (   0.246007   0.969268   0.000000 )  
               a(3) = (   0.000000   0.000000   1.683031 )  

     reciprocal axes: (cart. coord. in units 2 pi/alat)
               b(1) = (  2.032465 -0.515853  0.000000 )  
               b(2) = (  2.032465  0.515853  0.000000 )  
               b(3) = (  0.000000  0.000000  0.594166 )  


     PseudoPot. # 1 for Zr read from file:
     pseudo/Zr.pbe-spn-kjpaw_psl.1.0.0.UPF
     MD5 check sum: 02112c41713a0468aff2bb39ef194e36
     Pseudo is Projector augmented-wave + core cor, Zval = 12.0
     Generated using &quot;atomic&quot; code by A. Dal Corso  v.6.2.2
     Shape of augmentation charge: PSQ
     Using radial grid of 1225 points,  6 beta functions with: 
                l(1) =   0
                l(2) =   0
                l(3) =   1
                l(4) =   1
                l(5) =   2
                l(6) =   2
     Q(r) pseudized with 0 coefficients 


     PseudoPot. # 2 for Te read from file:
     pseudo/Te.pbe-n-kjpaw_psl.1.0.0.UPF
     MD5 check sum: 66247bff2bd9dbf220fbb0bf5ab56e9d
     Pseudo is Projector augmented-wave + core cor, Zval =  6.0
     Generated using &quot;atomic&quot; code by A. Dal Corso  v.6.3
     Shape of augmentation charge: PSQ
     Using radial grid of 1245 points,  6 beta functions with: 
                l(1) =   0
                l(2) =   0
                l(3) =   1
                l(4) =   1
                l(5) =   2
                l(6) =   2
     Q(r) pseudized with 0 coefficients 


     atomic species   valence    mass     pseudopotential
        Zr            12.00    91.22000     Zr( 1.00)
        Te             6.00   127.60000     Te( 1.00)

      8 Sym. Ops., with inversion, found ( 4 have fractional translation)



   Cartesian axes

     site n.     atom                  positions (alat units)
         1           Zr  tau(   1) = (   0.0000000   0.6128402   0.4207578  )
         2           Zr  tau(   2) = (   0.2460067   0.3564279   1.2622733  )
         3           Te  tau(   3) = (   0.2460067   0.3343937   0.4207578  )
         4           Te  tau(   4) = (   0.0000000   0.6348744   1.2622733  )
         5           Te  tau(   5) = (   0.2460067   0.8065334   0.2498160  )
         6           Te  tau(   6) = (   0.0000000   0.1627347   1.4332150  )
         7           Te  tau(   7) = (   0.2460067   0.8065334   0.5916995  )
         8           Te  tau(   8) = (   0.0000000   0.1627347   1.0913315  )
         9           Te  tau(   9) = (   0.0000000   0.4022213   0.7187938  )
        10           Te  tau(  10) = (   0.2460067   0.5670468   0.9642373  )
        11           Te  tau(  11) = (   0.0000000   0.4022213   0.1227218  )
        12           Te  tau(  12) = (   0.2460067   0.5670468   1.5603093  )

     number of k points=    63  Methfessel-Paxton smearing, width (Ry)=  0.0030
                       cart. coord. in units 2pi/alat
        k(    1) = (   0.0000000   0.0000000   0.0000000), wk =   0.0078125
        k(    2) = (   0.0000000   0.0000000   0.1485415), wk =   0.0156250
        k(    3) = (   0.0000000   0.0000000  -0.2970830), wk =   0.0078125
        k(    4) = (   0.2540581   0.0644816   0.0000000), wk =   0.0312500
        k(    5) = (   0.2540581   0.0644816   0.1485415), wk =   0.0625000
        k(    6) = (   0.2540581   0.0644816  -0.2970830), wk =   0.0312500
        k(    7) = (   0.5081162   0.1289633   0.0000000), wk =   0.0312500
        k(    8) = (   0.5081162   0.1289633   0.1485415), wk =   0.0625000
        k(    9) = (   0.5081162   0.1289633  -0.2970830), wk =   0.0312500
        k(   10) = (   0.7621743   0.1934449   0.0000000), wk =   0.0312500
        k(   11) = (   0.7621743   0.1934449   0.1485415), wk =   0.0625000
        k(   12) = (   0.7621743   0.1934449  -0.2970830), wk =   0.0312500
        k(   13) = (  -1.0162324  -0.2579266   0.0000000), wk =   0.0156250
        k(   14) = (  -1.0162324  -0.2579266   0.1485415), wk =   0.0312500
        k(   15) = (  -1.0162324  -0.2579266  -0.2970830), wk =   0.0156250
        k(   16) = (   0.5081162   0.0000000   0.0000000), wk =   0.0156250
        k(   17) = (   0.5081162   0.0000000   0.1485415), wk =   0.0312500
        k(   18) = (   0.5081162   0.0000000  -0.2970830), wk =   0.0156250
        k(   19) = (   0.7621743   0.0644816   0.0000000), wk =   0.0312500
        k(   20) = (   0.7621743   0.0644816   0.1485415), wk =   0.0625000
        k(   21) = (   0.7621743   0.0644816  -0.2970830), wk =   0.0312500
        k(   22) = (   1.0162324   0.1289633   0.0000000), wk =   0.0312500
        k(   23) = (   1.0162324   0.1289633   0.1485415), wk =   0.0625000
        k(   24) = (   1.0162324   0.1289633  -0.2970830), wk =   0.0312500
        k(   25) = (  -0.7621743  -0.3224082   0.0000000), wk =   0.0312500
        k(   26) = (  -0.7621743  -0.3224082   0.1485415), wk =   0.0625000
        k(   27) = (  -0.7621743  -0.3224082  -0.2970830), wk =   0.0312500
        k(   28) = (  -0.5081162  -0.2579266   0.0000000), wk =   0.0312500
        k(   29) = (  -0.5081162  -0.2579266   0.1485415), wk =   0.0625000
        k(   30) = (  -0.5081162  -0.2579266  -0.2970830), wk =   0.0312500
        k(   31) = (  -0.2540581  -0.1934449   0.0000000), wk =   0.0312500
        k(   32) = (  -0.2540581  -0.1934449   0.1485415), wk =   0.0625000
        k(   33) = (  -0.2540581  -0.1934449  -0.2970830), wk =   0.0312500
        k(   34) = (   0.0000000  -0.1289633   0.0000000), wk =   0.0156250
        k(   35) = (   0.0000000  -0.1289633   0.1485415), wk =   0.0312500
        k(   36) = (   0.0000000  -0.1289633  -0.2970830), wk =   0.0156250
        k(   37) = (   1.0162324   0.0000000   0.0000000), wk =   0.0156250
        k(   38) = (   1.0162324   0.0000000   0.1485415), wk =   0.0312500
        k(   39) = (   1.0162324   0.0000000  -0.2970830), wk =   0.0156250
        k(   40) = (   1.2702905   0.0644816   0.0000000), wk =   0.0312500
        k(   41) = (   1.2702905   0.0644816   0.1485415), wk =   0.0625000
        k(   42) = (   1.2702905   0.0644816  -0.2970830), wk =   0.0312500
        k(   43) = (  -0.5081162  -0.3868899   0.0000000), wk =   0.0312500
        k(   44) = (  -0.5081162  -0.3868899   0.1485415), wk =   0.0625000
        k(   45) = (  -0.5081162  -0.3868899  -0.2970830), wk =   0.0312500
        k(   46) = (  -0.2540581  -0.3224082   0.0000000), wk =   0.0312500
        k(   47) = (  -0.2540581  -0.3224082   0.1485415), wk =   0.0625000
        k(   48) = (  -0.2540581  -0.3224082  -0.2970830), wk =   0.0312500
        k(   49) = (   0.0000000  -0.2579266   0.0000000), wk =   0.0156250
        k(   50) = (   0.0000000  -0.2579266   0.1485415), wk =   0.0312500
        k(   51) = (   0.0000000  -0.2579266  -0.2970830), wk =   0.0156250
        k(   52) = (   1.5243485   0.0000000   0.0000000), wk =   0.0156250
        k(   53) = (   1.5243485   0.0000000   0.1485415), wk =   0.0312500
        k(   54) = (   1.5243485   0.0000000  -0.2970830), wk =   0.0156250
        k(   55) = (  -0.2540581  -0.4513715   0.0000000), wk =   0.0312500
        k(   56) = (  -0.2540581  -0.4513715   0.1485415), wk =   0.0625000
        k(   57) = (  -0.2540581  -0.4513715  -0.2970830), wk =   0.0312500
        k(   58) = (   0.0000000  -0.3868899   0.0000000), wk =   0.0156250
        k(   59) = (   0.0000000  -0.3868899   0.1485415), wk =   0.0312500
        k(   60) = (   0.0000000  -0.3868899  -0.2970830), wk =   0.0156250
        k(   61) = (  -2.0324647   0.0000000   0.0000000), wk =   0.0078125
        k(   62) = (  -2.0324647   0.0000000   0.1485415), wk =   0.0156250
        k(   63) = (  -2.0324647   0.0000000  -0.2970830), wk =   0.0078125

     Dense  grid:  1153415 G-vectors     FFT dimensions: ( 144, 144, 240)

     Smooth grid:   291749 G-vectors     FFT dimensions: (  90,  90, 150)

     Estimated max dynamical RAM per process >     657.19 MB

     Estimated total dynamical RAM >       6.42 GB

     Initial potential from superposition of free atoms

     starting charge   83.99353, renormalised to   84.00000
     Starting wfcs are   66 randomized atomic wfcs
     Checking if some PAW data can be deallocated... 

     total cpu time spent up to now is       21.9 secs

     Self-consistent Calculation

     iteration #  1     ecut=    80.00 Ry     beta= 0.70
     Davidson diagonalization with overlap
     ethr =  1.00E-02,  avg # of iterations =  2.0

     Threshold (ethr) on eigenvalues was too large:
     Diagonalizing with lowered threshold

     Davidson diagonalization with overlap
     ethr =  3.70E-04,  avg # of iterations =  4.1

     total cpu time spent up to now is      107.6 secs

     total energy              =   -4240.71158558 Ry
     estimated scf accuracy    <       0.42326908 Ry

     iteration #  2     ecut=    80.00 Ry     beta= 0.70
     Davidson diagonalization with overlap
     ethr =  5.04E-04,  avg # of iterations =  7.3

     total cpu time spent up to now is      168.4 secs

     total energy              =   -4240.61916376 Ry
     estimated scf accuracy    <       2.16789995 Ry

     iteration #  3     ecut=    80.00 Ry     beta= 0.70
     Davidson diagonalization with overlap
     ethr =  5.04E-04,  avg # of iterations =  5.1

     total cpu time spent up to now is      220.4 secs

     total energy              =   -4240.90934476 Ry
     estimated scf accuracy    <       0.02009923 Ry

     iteration #  4     ecut=    80.00 Ry     beta= 0.70
     Davidson diagonalization with overlap
     c_bands:  2 eigenvalues not converged
     c_bands:  2 eigenvalues not converged
     c_bands:  1 eigenvalues not converged
     c_bands:  1 eigenvalues not converged
     c_bands:  1 eigenvalues not converged
     c_bands:  2 eigenvalues not converged
     c_bands:  1 eigenvalues not converged
     c_bands:  1 eigenvalues not converged
     c_bands:  1 eigenvalues not converged
     ethr =  2.39E-05,  avg # of iterations = 15.9

     total cpu time spent up to now is      309.6 secs

     total energy              =   -4240.92718676 Ry
     estimated scf accuracy    <       0.09005421 Ry

     iteration #  5     ecut=    80.00 Ry     beta= 0.70
     Davidson diagonalization with overlap
     ethr =  2.39E-05,  avg # of iterations =  4.9

     total cpu time spent up to now is      355.8 secs

     total energy              =   -4240.92909476 Ry
     estimated scf accuracy    <       0.02096051 Ry

     iteration #  6     ecut=    80.00 Ry     beta= 0.70
     Davidson diagonalization with overlap
     ethr =  2.39E-05,  avg # of iterations =  2.9

     total cpu time spent up to now is      396.3 secs

     total energy              =   -4240.93042839 Ry
     estimated scf accuracy    <       0.00247824 Ry

     iteration #  7     ecut=    80.00 Ry     beta= 0.70
     Davidson diagonalization with overlap
     c_bands:  1 eigenvalues not converged
     c_bands:  2 eigenvalues not converged
     c_bands:  1 eigenvalues not converged
     c_bands:  1 eigenvalues not converged
     c_bands:  1 eigenvalues not converged
     c_bands:  1 eigenvalues not converged
     c_bands:  1 eigenvalues not converged
     c_bands:  1 eigenvalues not converged
     c_bands:  2 eigenvalues not converged
     ethr =  2.95E-06,  avg # of iterations = 14.9

     total cpu time spent up to now is      470.5 secs

     total energy              =   -4240.93194408 Ry
     estimated scf accuracy    <       0.00279384 Ry

     iteration #  8     ecut=    80.00 Ry     beta= 0.70
     Davidson diagonalization with overlap
     c_bands:  1 eigenvalues not converged
     c_bands:  1 eigenvalues not converged
     c_bands:  1 eigenvalues not converged
     ethr =  2.95E-06,  avg # of iterations =  3.0

     total cpu time spent up to now is      508.3 secs

     total energy              =   -4240.93192856 Ry
     estimated scf accuracy    <       0.00063729 Ry

     iteration #  9     ecut=    80.00 Ry     beta= 0.70
     Davidson diagonalization with overlap
     ethr =  7.59E-07,  avg # of iterations =  6.0

     total cpu time spent up to now is      554.2 secs

     total energy              =   -4240.93204963 Ry
     estimated scf accuracy    <       0.00001012 Ry

     iteration # 10     ecut=    80.00 Ry     beta= 0.70
     Davidson diagonalization with overlap
     c_bands:  1 eigenvalues not converged
     c_bands:  1 eigenvalues not converged
     c_bands:  1 eigenvalues not converged
     ethr =  1.21E-08,  avg # of iterations = 11.2

     total cpu time spent up to now is      627.8 secs

     total energy              =   -4240.93207405 Ry
     estimated scf accuracy    <       0.00002327 Ry

     iteration # 11     ecut=    80.00 Ry     beta= 0.70
     Davidson diagonalization with overlap
     ethr =  1.21E-08,  avg # of iterations =  3.4

     total cpu time spent up to now is      669.9 secs

     total energy              =   -4240.93207669 Ry
     estimated scf accuracy    <       0.00000053 Ry

     iteration # 12     ecut=    80.00 Ry     beta= 0.70
     Davidson diagonalization with overlap
     c_bands:  1 eigenvalues not converged
     ethr =  6.32E-10,  avg # of iterations =  9.3

     total cpu time spent up to now is      736.9 secs

     total energy              =   -4240.93207709 Ry
     estimated scf accuracy    <       0.00000124 Ry

     iteration # 13     ecut=    80.00 Ry     beta= 0.70
     Davidson diagonalization with overlap
     c_bands:  1 eigenvalues not converged
     ethr =  6.32E-10,  avg # of iterations =  3.3

     total cpu time spent up to now is      777.9 secs

     total energy              =   -4240.93207717 Ry
     estimated scf accuracy    <       0.00000009 Ry

     iteration # 14     ecut=    80.00 Ry     beta= 0.70
     Davidson diagonalization with overlap
     c_bands:  1 eigenvalues not converged
     ethr =  1.04E-10,  avg # of iterations =  7.6

     total cpu time spent up to now is      835.5 secs

     total energy              =   -4240.93207722 Ry
     estimated scf accuracy    <       0.00000006 Ry

     iteration # 15     ecut=    80.00 Ry     beta= 0.70
     Davidson diagonalization with overlap
     c_bands:  1 eigenvalues not converged
     ethr =  7.10E-11,  avg # of iterations =  1.9

     total cpu time spent up to now is      872.0 secs

     total energy              =   -4240.93207722 Ry
     estimated scf accuracy    <       0.00000002 Ry

     iteration # 16     ecut=    80.00 Ry     beta= 0.70
     Davidson diagonalization with overlap
     ethr =  1.80E-11,  avg # of iterations =  5.4

     total cpu time spent up to now is      917.4 secs

     total energy              =   -4240.93207722 Ry
     estimated scf accuracy    <          2.6E-10 Ry

     iteration # 17     ecut=    80.00 Ry     beta= 0.70
     Davidson diagonalization with overlap
     ethr =  3.13E-13,  avg # of iterations =  7.9

     total cpu time spent up to now is      977.8 secs

     total energy              =   -4240.93207723 Ry
     estimated scf accuracy    <          5.4E-10 Ry

     iteration # 18     ecut=    80.00 Ry     beta= 0.70
     Davidson diagonalization with overlap
     ethr =  3.13E-13,  avg # of iterations =  2.3

     total cpu time spent up to now is     1014.6 secs

     total energy              =   -4240.93207723 Ry
     estimated scf accuracy    <          1.6E-10 Ry

     iteration # 19     ecut=    80.00 Ry     beta= 0.70
     Davidson diagonalization with overlap
     ethr =  1.85E-13,  avg # of iterations =  2.6

     total cpu time spent up to now is     1052.0 secs

     End of self-consistent calculation

          k = 0.0000 0.0000 0.0000 ( 36359 PWs)   bands (ev):

   -44.1587 -44.1587 -22.3044 -22.3044 -22.1983 -22.1983 -22.0794 -22.0793
    -7.6339  -7.1863  -6.8723  -6.7651  -6.6190  -5.2760  -5.1576  -4.9214
    -4.8640  -3.8674   0.4700   0.6596   0.7911   1.0428   1.4781   1.6217
     2.4113   2.5322   2.5830   2.9931   3.0608   3.0619   3.1877   3.4955
     3.5308   3.5563   3.8553   4.0381   4.0706   4.2752   4.3148   4.6199
     5.2340   5.5439   5.5562   5.5631   5.8640   6.0725   6.4418   6.7717
     6.9301   7.3107

          k = 0.0000 0.0000 0.1485 ( 36415 PWs)   bands (ev):

   -44.1587 -44.1587 -22.3044 -22.3044 -22.1983 -22.1983 -22.0793 -22.0793
    -7.5952  -7.3122  -6.8199  -6.7710  -6.4723  -5.6871  -4.9462  -4.8767
    -4.7082  -3.9831   0.5048   0.6978   0.9076   1.0611   1.0630   2.0593
     2.1290   2.4334   2.5546   3.0629   3.0675   3.1416   3.2967   3.3582
     3.6723   3.6732   3.8216   4.0264   4.0266   4.2947   4.3259   4.6409
     4.9685   5.0671   5.6900   5.9097   6.0627   6.0926   6.5745   6.7227
     6.7696   7.2935

          k = 0.0000 0.0000-0.2971 ( 36410 PWs)   bands (ev):

   -44.1587 -44.1587 -22.3044 -22.3044 -22.1983 -22.1983 -22.0793 -22.0793
    -7.4823  -7.4823  -6.7875  -6.7875  -6.1207  -6.1207  -4.9080  -4.9080
    -4.2918  -4.2918   0.6759   0.6759   0.8379   0.8379   1.4776   1.4776
     2.4908   2.4908   2.7056   2.7056   3.0901   3.0901   3.3261   3.3261
     3.8142   3.8142   3.8800   3.8800   4.3113   4.3113   4.4287   4.4287
     4.7351   4.7351   5.9593   5.9593   6.2594   6.2594   6.3812   6.3812
     7.1861   7.1861

          k = 0.2541 0.0645 0.0000 ( 36396 PWs)   bands (ev):

   -44.1583 -44.1583 -22.3025 -22.3025 -22.2084 -22.2084 -22.0781 -22.0780
    -7.5204  -7.0980  -6.7727  -6.7198  -6.5623  -5.2462  -5.1396  -4.8812
    -4.8230  -4.0028   0.5576   0.7967   0.9296   1.1603   1.2511   1.5211
     1.9476   2.1757   2.2078   2.5159   2.5997   2.9720   3.5250   3.6264
     3.6502   3.6870   3.7211   3.8250   4.0537   4.1081   4.1967   4.2747
     4.4570   4.7478   5.6543   6.0063   6.3135   6.5386   6.6107   6.8283
     7.0020   7.1448

          k = 0.2541 0.0645 0.1485 ( 36423 PWs)   bands (ev):

   -44.1583 -44.1583 -22.3025 -22.3025 -22.2084 -22.2084 -22.0781 -22.0780
    -7.4827  -7.2113  -6.7547  -6.7247  -6.3971  -5.6317  -4.9237  -4.8379
    -4.7090  -4.0956   0.5801   0.8376   0.9752   1.0050   1.1359   1.6290
     1.8803   2.2903   2.5170   2.5488   2.5919   2.9085   3.2408   3.3031
     3.6259   3.6882   3.7982   3.8747   3.9886   4.0778   4.2138   4.2746
     4.7052   5.0856   5.7810   5.8112   6.2272   6.2808   6.4905   6.6599
     7.2729   7.2735

          k = 0.2541 0.0645-0.2971 ( 36436 PWs)   bands (ev):

   -44.1583 -44.1583 -22.3025 -22.3025 -22.2084 -22.2084 -22.0780 -22.0780
    -7.3733  -7.3733  -6.7377  -6.7377  -6.0476  -6.0476  -4.8747  -4.8747
    -4.3520  -4.3520   0.7093   0.7093   0.9423   0.9423   1.3212   1.3212
     2.2686   2.2686   2.6259   2.6259   2.7351   2.7351   3.0761   3.0761
     3.5757   3.5757   3.8396   3.8396   4.0055   4.0055   4.2688   4.2688
     5.2250   5.2250   5.7332   5.7332   6.0591   6.0591   6.4840   6.4840
     7.4309   7.4309

          k = 0.5081 0.1290 0.0000 ( 36499 PWs)   bands (ev):

   -44.1574 -44.1574 -22.2977 -22.2977 -22.2327 -22.2327 -22.0750 -22.0749
    -7.2041  -6.8892  -6.5906  -6.4878  -6.3733  -5.2036  -5.1358  -4.7752
    -4.7219  -4.4130   0.4862   0.7461   0.7924   1.1660   1.3291   1.4906
     1.6532   1.8140   1.9628   2.1744   2.1851   2.2586   2.5249   3.1887
     3.3218   3.3964   3.4412   3.5531   3.7660   3.8349   3.9908   4.1513
     4.7029   5.3321   5.3841   5.8135   5.8956   6.5273   6.5411   6.8161
     7.3569   7.5638

          k = 0.5081 0.1290 0.1485 ( 36476 PWs)   bands (ev):

   -44.1574 -44.1574 -22.2977 -22.2977 -22.2327 -22.2327 -22.0750 -22.0749
    -7.1709  -6.9544  -6.5936  -6.5663  -6.1697  -5.5007  -4.9349  -4.7508
    -4.7045  -4.4459   0.5030   0.7596   0.9243   1.0940   1.2055   1.4277
     1.4684   1.6882   2.0429   2.0632   2.3319   2.5742   2.8704   3.2250
     3.3096   3.3934   3.4632   3.5675   3.6201   3.8005   3.8491   4.2115
     4.4300   4.6143   5.9863   6.0521   6.2145   6.5388   6.5815   6.7012
     7.2057   7.4756

          k = 0.5081 0.1290-0.2971 ( 36466 PWs)   bands (ev):

   -44.1574 -44.1574 -22.2977 -22.2977 -22.2327 -22.2327 -22.0749 -22.0749
    -7.0776  -7.0776  -6.5937  -6.5937  -5.8491  -5.8491  -4.8224  -4.8224
    -4.5514  -4.5514   0.6224   0.6224   1.1047   1.1047   1.2696   1.2696
     1.3587   1.3587   2.0612   2.0612   2.7971   2.7971   3.0908   3.0908
     3.3098   3.3098   3.5401   3.5401   3.7118   3.7118   3.8555   3.8555
     4.3015   4.3015   6.2130   6.2130   6.5293   6.5293   6.7591   6.7591
     7.0825   7.0825

          k = 0.7622 0.1934 0.0000 ( 36521 PWs)   bands (ev):

   -44.1565 -44.1565 -22.2929 -22.2929 -22.2570 -22.2570 -22.0719 -22.0718
    -6.8237  -6.7113  -6.3253  -6.0663  -6.0147  -5.2805  -5.2691  -5.0471
    -4.6542  -4.6191   0.0005   0.3150   0.6671   1.1692   1.1732   1.2254
     1.4784   1.5872   1.9012   1.9402   2.2613   2.4503   2.5369   2.7227
     2.7471   3.2497   3.2766   3.3281   3.6454   3.6525   3.7793   3.8761
     4.0175   4.5704   5.7397   6.1368   6.2175   6.6355   6.6954   6.7864
     7.1786   7.5415

          k = 0.7622 0.1934 0.1485 ( 36503 PWs)   bands (ev):

   -44.1565 -44.1565 -22.2929 -22.2929 -22.2570 -22.2570 -22.0718 -22.0718
    -6.8066  -6.7262  -6.3181  -6.1975  -5.8323  -5.4127  -5.1891  -5.0685
    -4.6429  -4.6193   0.0805   0.4159   0.5545   0.9640   1.1754   1.2093
     1.4938   1.6445   1.7245   2.0924   2.1290   2.6497   2.6598   2.7974
     2.8586   3.1695   3.2743   3.3639   3.4528   3.6529   3.6935   3.8756
     4.0169   4.8061   5.3182   6.2130   6.5176   6.5514   6.6985   6.8840
     6.9540   7.4316

          k = 0.7622 0.1934-0.2971 ( 36522 PWs)   bands (ev):

   -44.1565 -44.1565 -22.2929 -22.2929 -22.2570 -22.2570 -22.0718 -22.0718
    -6.7654  -6.7654  -6.2843  -6.2843  -5.6102  -5.6102  -5.1219  -5.1219
    -4.6258  -4.6258   0.2888   0.2888   0.7233   0.7233   1.0652   1.0652
     1.5756   1.5756   1.9642   1.9642   2.3780   2.3780   2.7965   2.7965
     2.9899   2.9899   3.4217   3.4217   3.5601   3.5601   3.7735   3.7735
     4.2221   4.2221   5.9453   5.9453   6.3490   6.3490   6.7873   6.7873
     7.2739   7.2739

          k =-1.0162-0.2579 0.0000 ( 36506 PWs)   bands (ev):

   -44.1561 -44.1561 -22.2907 -22.2907 -22.2672 -22.2672 -22.0706 -22.0706
    -6.6769  -6.6567  -5.7617  -5.7523  -5.6170  -5.6027  -5.5820  -5.5806
    -4.5959  -4.5795   0.1003   0.1278   0.4511   0.4688   1.0138   1.0211
     1.4717   1.6780   2.2182   2.3267   2.3270   2.3308   2.7996   2.8373
     2.8424   2.9664   3.2546   3.2755   3.2977   3.5070   3.5692   3.6636
     3.8722   3.8939   6.3230   6.3559   6.4231   6.5091   6.9064   6.9654
     6.9734   6.9833

          k =-1.0162-0.2579 0.1485 ( 36506 PWs)   bands (ev):

   -44.1561 -44.1561 -22.2907 -22.2907 -22.2672 -22.2672 -22.0706 -22.0706
    -6.6734  -6.6590  -5.7572  -5.7485  -5.6702  -5.6669  -5.5247  -5.5189
    -4.6002  -4.5886   0.0164   0.0257   0.6614   0.6647   1.0400   1.0681
     1.4631   1.5684   1.9192   1.9761   2.3568   2.3661   2.7628   2.7748
     2.9551   2.9576   3.1970   3.2380   3.5244   3.5522   3.7057   3.7336
     4.1270   4.1402   5.8262   5.8321   6.3587   6.4294   6.8387   6.8795
     7.2012   7.2203

          k =-1.0162-0.2579-0.2971 ( 36528 PWs)   bands (ev):

   -44.1561 -44.1561 -22.2907 -22.2907 -22.2672 -22.2672 -22.0706 -22.0706
    -6.6656  -6.6656  -5.7450  -5.7450  -5.7022  -5.7022  -5.4908  -5.4908
    -4.6012  -4.6012  -0.0367  -0.0367   0.8881   0.8881   1.0961   1.0961
     1.4748   1.4748   1.6206   1.6206   2.3599   2.3599   2.7950   2.7950
     2.9258   2.9258   3.2295   3.2295   3.5717   3.5717   3.7655   3.7655
     4.6742   4.6742   5.1975   5.1975   6.3284   6.3284   6.8736   6.8736
     7.2628   7.2628

          k = 0.5081 0.0000 0.0000 ( 36503 PWs)   bands (ev):

   -44.1574 -44.1574 -22.2977 -22.2977 -22.2327 -22.2327 -22.0750 -22.0749
    -7.2105  -6.8922  -6.5826  -6.4892  -6.3682  -5.2047  -5.1321  -4.7716
    -4.7266  -4.4126   0.4843   0.7438   0.7994   1.1322   1.3245   1.4703
     1.6592   1.8184   1.9737   2.1377   2.1784   2.2432   2.5340   3.1697
     3.3263   3.3897   3.4957   3.5819   3.7735   3.8208   4.0264   4.1891
     4.7052   5.3381   5.3882   5.8460   5.8757   6.4878   6.4895   6.8513
     7.3869   7.5763

          k = 0.5081 0.0000 0.1485 ( 36453 PWs)   bands (ev):

   -44.1574 -44.1574 -22.2977 -22.2977 -22.2327 -22.2327 -22.0750 -22.0749
    -7.1773  -6.9592  -6.5850  -6.5613  -6.1695  -5.5017  -4.9284  -4.7524
    -4.7057  -4.4467   0.5005   0.7544   0.9307   1.0959   1.1753   1.4187
     1.4553   1.6861   2.0384   2.0639   2.3293   2.5486   2.8622   3.2111
     3.3035   3.4226   3.4865   3.5936   3.6135   3.8420   3.8484   4.2461
     4.4457   4.6172   5.9896   6.0691   6.2167   6.4874   6.5466   6.7313
     7.2320   7.4789

          k = 0.5081 0.0000-0.2971 ( 36452 PWs)   bands (ev):

   -44.1574 -44.1574 -22.2977 -22.2977 -22.2327 -22.2327 -22.0749 -22.0749
    -7.0837  -7.0837  -6.5859  -6.5859  -5.8503  -5.8503  -4.8181  -4.8181
    -4.5541  -4.5541   0.6177   0.6177   1.1054   1.1054   1.2888   1.2888
     1.3160   1.3160   2.0604   2.0604   2.7877   2.7877   3.0656   3.0656
     3.3030   3.3030   3.6019   3.6019   3.7158   3.7158   3.8590   3.8590
     4.3271   4.3271   6.2283   6.2283   6.4957   6.4957   6.7726   6.7726
     7.0845   7.0845

          k = 0.7622 0.0645 0.0000 ( 36505 PWs)   bands (ev):

   -44.1565 -44.1565 -22.2929 -22.2929 -22.2570 -22.2570 -22.0719 -22.0718
    -6.8332  -6.7098  -6.3157  -6.0693  -6.0136  -5.2811  -5.2637  -5.0468
    -4.6487  -4.6260  -0.0059   0.3269   0.6935   1.1585   1.2096   1.2388
     1.4335   1.5422   1.8781   1.9505   2.2077   2.4325   2.5219   2.7011
     2.7213   3.3038   3.3177   3.3300   3.5960   3.6654   3.8355   3.9023
     4.0358   4.6150   5.7385   6.1520   6.1791   6.6010   6.7423   6.7526
     7.2040   7.6712

          k = 0.7622 0.0645 0.1485 ( 36509 PWs)   bands (ev):

   -44.1565 -44.1565 -22.2929 -22.2929 -22.2570 -22.2570 -22.0718 -22.0718
    -6.8152  -6.7270  -6.3088  -6.1950  -5.8346  -5.4133  -5.1850  -5.0676
    -4.6392  -4.6241   0.0770   0.4237   0.5639   0.9890   1.1837   1.2117
     1.4540   1.6478   1.7401   2.0270   2.0509   2.6525   2.6567   2.7649
     2.8502   3.1692   3.3441   3.3866   3.4127   3.6716   3.7259   3.8929
     4.0662   4.8054   5.3457   6.1987   6.5190   6.5345   6.7165   6.8826
     6.9370   7.4500

          k = 0.7622 0.0645-0.2971 ( 36472 PWs)   bands (ev):

   -44.1565 -44.1565 -22.2929 -22.2929 -22.2570 -22.2570 -22.0718 -22.0718
    -6.7708  -6.7708  -6.2773  -6.2773  -5.6124  -5.6124  -5.1191  -5.1191
    -4.6262  -4.6262   0.2911   0.2911   0.7201   0.7201   1.0917   1.0917
     1.5712   1.5712   1.9108   1.9108   2.3425   2.3425   2.7867   2.7867
     2.9885   2.9885   3.4907   3.4907   3.5571   3.5571   3.7675   3.7675
     4.2471   4.2471   5.9688   5.9688   6.3505   6.3505   6.7524   6.7524
     7.2997   7.2997

          k = 1.0162 0.1290 0.0000 ( 36514 PWs)   bands (ev):

   -44.1561 -44.1561 -22.2907 -22.2907 -22.2672 -22.2672 -22.0706 -22.0706
    -6.6769  -6.6567  -5.7611  -5.7530  -5.6170  -5.6027  -5.5830  -5.5796
    -4.5959  -4.5795   0.0945   0.1337   0.4449   0.4752   1.0088   1.0280
     1.4766   1.6694   2.2229   2.3086   2.3224   2.3360   2.8027   2.8355
     2.8728   2.9603   3.2234   3.2972   3.3078   3.5132   3.5458   3.6721
     3.8579   3.9047   6.3220   6.3583   6.4184   6.5143   6.9147   6.9685
     6.9700   6.9855

          k = 1.0162 0.1290 0.1485 ( 36524 PWs)   bands (ev):

   -44.1561 -44.1561 -22.2907 -22.2907 -22.2672 -22.2672 -22.0706 -22.0706
    -6.6734  -6.6590  -5.7566  -5.7491  -5.6707  -5.6664  -5.5250  -5.5186
    -4.6002  -4.5886   0.0144   0.0273   0.6592   0.6676   1.0444   1.0649
     1.4671   1.5667   1.9196   1.9702   2.3486   2.3621   2.7202   2.8275
     2.9646   2.9785   3.1706   3.2405   3.5200   3.5827   3.6973   3.7069
     4.1270   4.1462   5.8144   5.8460   6.3561   6.4318   6.8456   6.8786
     7.2040   7.2176

          k = 1.0162 0.1290-0.2971 ( 36516 PWs)   bands (ev):

   -44.1561 -44.1561 -22.2907 -22.2907 -22.2672 -22.2672 -22.0706 -22.0706
    -6.6656  -6.6656  -5.7450  -5.7450  -5.7022  -5.7022  -5.4908  -5.4908
    -4.6012  -4.6012  -0.0369  -0.0369   0.8874   0.8874   1.0990   1.0990
     1.4734   1.4734   1.6217   1.6217   2.3494   2.3494   2.7775   2.7775
     2.9744   2.9744   3.2078   3.2078   3.5789   3.5789   3.7566   3.7566
     4.6744   4.6744   5.1993   5.1993   6.3281   6.3281   6.8762   6.8762
     7.2626   7.2626

          k =-0.7622-0.3224 0.0000 ( 36511 PWs)   bands (ev):

   -44.1565 -44.1565 -22.2929 -22.2929 -22.2570 -22.2570 -22.0719 -22.0718
    -6.8084  -6.7149  -6.3391  -6.0621  -6.0163  -5.2796  -5.2768  -5.0474
    -4.6590  -4.6125   0.0099   0.2987   0.6323   1.1478   1.1840   1.2056
     1.5007   1.6583   1.9276   1.9467   2.3480   2.4665   2.5602   2.7465
     2.7829   3.1592   3.2434   3.3582   3.6007   3.6536   3.7586   3.8414
     3.9862   4.4992   5.7419   6.1333   6.2608   6.6145   6.6879   6.8541
     7.1377   7.6782

          k =-0.7622-0.3224 0.1485 ( 36492 PWs)   bands (ev):

   -44.1565 -44.1565 -22.2929 -22.2929 -22.2570 -22.2570 -22.0718 -22.0718
    -6.7930  -6.7261  -6.3313  -6.2013  -5.8292  -5.4119  -5.1949  -5.0699
    -4.6460  -4.6145   0.0850   0.4065   0.5396   0.9370   1.1608   1.2123
     1.5515   1.6368   1.7019   2.1904   2.2407   2.6450   2.6702   2.8297
     2.8694   3.1756   3.1940   3.3461   3.4743   3.6223   3.6608   3.8456
     3.9351   4.8059   5.2812   6.2365   6.4994   6.5670   6.6892   6.9067
     6.9738   7.4002

          k =-0.7622-0.3224-0.2971 ( 36508 PWs)   bands (ev):

   -44.1565 -44.1565 -22.2929 -22.2929 -22.2570 -22.2570 -22.0718 -22.0718
    -6.7575  -6.7575  -6.2945  -6.2945  -5.6072  -5.6072  -5.1259  -5.1259
    -4.6251  -4.6251   0.2850   0.2850   0.7280   0.7280   1.0352   1.0352
     1.5794   1.5794   2.0283   2.0283   2.4433   2.4433   2.8148   2.8148
     2.9899   2.9899   3.3280   3.3280   3.5654   3.5654   3.7650   3.7650
     4.1878   4.1878   5.9141   5.9141   6.3453   6.3453   6.8471   6.8471
     7.2299   7.2299

          k =-0.5081-0.2579 0.0000 ( 36480 PWs)   bands (ev):

   -44.1574 -44.1574 -22.2978 -22.2977 -22.2327 -22.2327 -22.0750 -22.0749
    -7.1877  -6.8826  -6.6093  -6.4845  -6.3865  -5.2012  -5.1450  -4.7809
    -4.7135  -4.4140   0.4922   0.7452   0.7764   1.2631   1.3392   1.5428
     1.6439   1.8087   1.9396   2.2096   2.2396   2.2868   2.5071   3.2403
     3.3185   3.3209   3.4134   3.4548   3.7362   3.8431   3.9394   4.0752
     4.6946   5.3203   5.3670   5.7387   5.9464   6.6252   6.6612   6.7318
     7.2815   7.5540

          k =-0.5081-0.2579 0.1485 ( 36485 PWs)   bands (ev):

   -44.1574 -44.1574 -22.2977 -22.2977 -22.2327 -22.2327 -22.0750 -22.0749
    -7.1547  -6.9425  -6.6134  -6.5801  -6.1698  -5.4984  -4.9499  -4.7486
    -4.7009  -4.4440   0.5096   0.7674   0.9097   1.0899   1.2901   1.4331
     1.5225   1.6884   2.0544   2.0651   2.3364   2.6321   2.8889   3.2600
     3.2917   3.3244   3.4439   3.4726   3.6226   3.7620   3.8275   4.1377
     4.3844   4.6074   5.9581   6.0317   6.2106   6.6261   6.6572   6.6766
     7.1395   7.4712

          k =-0.5081-0.2579-0.2971 ( 36478 PWs)   bands (ev):

   -44.1574 -44.1574 -22.2977 -22.2977 -22.2327 -22.2327 -22.0749 -22.0749
    -7.0621  -7.0621  -6.6133  -6.6133  -5.8463  -5.8463  -4.8325  -4.8325
    -4.5453  -4.5453   0.6331   0.6331   1.1018   1.1018   1.2523   1.2523
     1.4411   1.4411   2.0621   2.0621   2.8214   2.8214   3.1567   3.1567
     3.3250   3.3250   3.3897   3.3897   3.7000   3.7000   3.8456   3.8456
     4.2376   4.2376   6.1745   6.1745   6.5999   6.5999   6.7360   6.7360
     7.0817   7.0817

          k =-0.2541-0.1934 0.0000 ( 36410 PWs)   bands (ev):

   -44.1583 -44.1583 -22.3025 -22.3025 -22.2084 -22.2084 -22.0781 -22.0780
    -7.5087  -7.0866  -6.7703  -6.7356  -6.5796  -5.2444  -5.1468  -4.8883
    -4.8143  -4.0039   0.5901   0.8719   0.9393   1.1837   1.2825   1.5222
     1.9685   2.1942   2.2137   2.4793   2.5768   3.0421   3.4097   3.5181
     3.5785   3.6841   3.7782   3.8176   3.9907   4.1059   4.1707   4.2402
     4.3979   4.7154   5.7019   6.0199   6.3505   6.5735   6.6015   6.8496
     6.9994   7.0704

          k =-0.2541-0.1934 0.1485 ( 36427 PWs)   bands (ev):

   -44.1583 -44.1583 -22.3025 -22.3025 -22.2084 -22.2084 -22.0781 -22.0780
    -7.4710  -7.1992  -6.7668  -6.7392  -6.4018  -5.6300  -4.9414  -4.8337
    -4.7023  -4.0953   0.6065   0.8978   1.0072   1.0418   1.1522   1.6463
     1.8810   2.2931   2.4968   2.5395   2.6006   2.9137   3.2392   3.3268
     3.4925   3.6323   3.7453   3.8796   3.9686   4.0625   4.1618   4.2225
     4.6855   5.0649   5.7787   5.8111   6.1936   6.3218   6.5738   6.6790
     7.2275   7.2674

          k =-0.2541-0.1934-0.2971 ( 36422 PWs)   bands (ev):

   -44.1583 -44.1583 -22.3025 -22.3025 -22.2084 -22.2084 -22.0780 -22.0780
    -7.3614  -7.3614  -6.7532  -6.7532  -6.0468  -6.0468  -4.8812  -4.8812
    -4.3488  -4.3488   0.7281   0.7281   1.0084   1.0084   1.3309   1.3309
     2.2672   2.2672   2.5888   2.5888   2.7524   2.7524   3.1082   3.1082
     3.4857   3.4857   3.7997   3.7997   3.9993   3.9993   4.2117   4.2117
     5.2157   5.2157   5.6957   5.6957   6.0467   6.0467   6.5736   6.5736
     7.4074   7.4075

          k = 0.0000-0.1290 0.0000 ( 36417 PWs)   bands (ev):

   -44.1587 -44.1587 -22.3044 -22.3044 -22.1983 -22.1983 -22.0794 -22.0793
    -7.6278  -7.1794  -6.8710  -6.7740  -6.6293  -5.2752  -5.1614  -4.9267
    -4.8581  -3.8680   0.4968   0.7022   0.7970   1.0460   1.5019   1.6318
     2.4152   2.5317   2.5900   3.0012   3.0564   3.0992   3.1855   3.4360
     3.4601   3.5457   3.7981   4.0188   4.0706   4.2225   4.2656   4.6216
     5.2268   5.5079   5.5699   5.5702   5.8765   6.1137   6.4942   6.7401
     6.9310   7.4609

          k = 0.0000-0.1290 0.1485 ( 36419 PWs)   bands (ev):

   -44.1587 -44.1587 -22.3044 -22.3044 -22.1983 -22.1983 -22.0793 -22.0793
    -7.5890  -7.3056  -6.8252  -6.7793  -6.4762  -5.6863  -4.9567  -4.8737
    -4.7046  -3.9830   0.5276   0.7403   0.9237   1.0556   1.0847   2.0681
     2.1438   2.4377   2.5610   3.0622   3.0870   3.1377   3.2514   3.3191
     3.6641   3.6717   3.7576   3.9798   4.0252   4.2486   4.2803   4.6426
     4.9670   5.0528   5.6968   5.9120   6.0731   6.1030   6.5633   6.7659
     6.7705   7.2785

          k = 0.0000-0.1290-0.2971 ( 36464 PWs)   bands (ev):

   -44.1587 -44.1587 -22.3044 -22.3044 -22.1983 -22.1983 -22.0793 -22.0793
    -7.4760  -7.4760  -6.7958  -6.7958  -6.1207  -6.1207  -4.9115  -4.9115
    -4.2903  -4.2903   0.7070   0.7070   0.8517   0.8517   1.4874   1.4874
     2.4960   2.4960   2.7161   2.7161   3.0852   3.0852   3.2842   3.2842
     3.7899   3.7899   3.8751   3.8751   4.2288   4.2288   4.4406   4.4406
     4.7360   4.7360   5.9429   5.9429   6.2827   6.2827   6.3825   6.3825
     7.1925   7.1926

          k = 1.0162 0.0000 0.0000 ( 36499 PWs)   bands (ev):

   -44.1561 -44.1561 -22.2907 -22.2907 -22.2672 -22.2672 -22.0706 -22.0706
    -6.6769  -6.6567  -5.7603  -5.7538  -5.6170  -5.6027  -5.5835  -5.5791
    -4.5959  -4.5795   0.0901   0.1382   0.4406   0.4797   1.0064   1.0323
     1.4821   1.6600   2.2293   2.2899   2.3202   2.3390   2.8084   2.8259
     2.9175   2.9444   3.2089   3.3001   3.3202   3.5175   3.5231   3.6847
     3.8409   3.9145   6.3211   6.3606   6.4140   6.5191   6.9247   6.9649
     6.9716   6.9878

          k = 1.0162 0.0000 0.1485 ( 36485 PWs)   bands (ev):

   -44.1561 -44.1561 -22.2907 -22.2907 -22.2672 -22.2672 -22.0706 -22.0706
    -6.6734  -6.6590  -5.7559  -5.7498  -5.6710  -5.6659  -5.5252  -5.5184
    -4.6002  -4.5886   0.0128   0.0285   0.6580   0.6694   1.0519   1.0586
     1.4715   1.5647   1.9200   1.9640   2.3422   2.3570   2.7052   2.8456
     2.9701   3.0251   3.1303   3.2416   3.5201   3.6364   3.6525   3.6893
     4.1268   4.1521   5.8090   5.8534   6.3537   6.4341   6.8536   6.8766
     7.2098   7.2119

          k = 1.0162 0.0000-0.2971 ( 36514 PWs)   bands (ev):

   -44.1561 -44.1561 -22.2907 -22.2907 -22.2672 -22.2672 -22.0706 -22.0706
    -6.6656  -6.6656  -5.7450  -5.7450  -5.7022  -5.7022  -5.4908  -5.4908
    -4.6012  -4.6012  -0.0370  -0.0370   0.8867   0.8867   1.1018   1.1018
     1.4721   1.4721   1.6228   1.6228   2.3393   2.3393   2.7657   2.7657
     3.0258   3.0258   3.1773   3.1773   3.5866   3.5866   3.7471   3.7471
     4.6747   4.6747   5.2011   5.2011   6.3278   6.3278   6.8788   6.8788
     7.2625   7.2625

          k = 1.2703 0.0645 0.0000 ( 36468 PWs)   bands (ev):

   -44.1565 -44.1565 -22.2929 -22.2929 -22.2570 -22.2570 -22.0719 -22.0718
    -6.7955  -6.7193  -6.3489  -6.0591  -6.0176  -5.2823  -5.2791  -5.0477
    -4.6613  -4.6088   0.0167   0.2875   0.6090   1.1414   1.1888   1.1941
     1.5037   1.7092   1.9199   1.9864   2.4095   2.4831   2.5781   2.7610
     2.8045   3.0759   3.2473   3.4323   3.5445   3.5517   3.8139   3.8176
     3.9615   4.4401   5.7436   6.1366   6.2907   6.5575   6.7284   6.9089
     7.1015   7.5540

          k = 1.2703 0.0645 0.1485 ( 36490 PWs)   bands (ev):

   -44.1565 -44.1565 -22.2929 -22.2929 -22.2570 -22.2570 -22.0718 -22.0718
    -6.7819  -6.7272  -6.3408  -6.2042  -5.8269  -5.4115  -5.1990  -5.0709
    -4.6475  -4.6119   0.0879   0.4010   0.5279   0.9219   1.1512   1.2158
     1.6107   1.6325   1.6653   2.2672   2.3195   2.6503   2.6761   2.8482
     2.8751   3.0917   3.2391   3.3525   3.4279   3.5865   3.7060   3.8044
     3.8599   4.8050   5.2565   6.2574   6.4682   6.5779   6.6948   6.9349
     6.9867   7.3738

          k = 1.2703 0.0645-0.2971 ( 36480 PWs)   bands (ev):

   -44.1565 -44.1565 -22.2929 -22.2929 -22.2570 -22.2570 -22.0718 -22.0718
    -6.7517  -6.7517  -6.3019  -6.3019  -5.6050  -5.6050  -5.1287  -5.1287
    -4.6247  -4.6247   0.2821   0.2821   0.7313   0.7313   1.0179   1.0179
     1.5819   1.5819   2.0639   2.0639   2.5008   2.5008   2.8479   2.8479
     2.9783   2.9783   3.2510   3.2510   3.5773   3.5773   3.7468   3.7468
     4.1647   4.1647   5.8931   5.8931   6.3420   6.3420   6.9005   6.9005
     7.1895   7.1895

          k =-0.5081-0.3869 0.0000 ( 36463 PWs)   bands (ev):

   -44.1574 -44.1574 -22.2978 -22.2977 -22.2327 -22.2327 -22.0750 -22.0749
    -7.1698  -6.8774  -6.6271  -6.4811  -6.4008  -5.1987  -5.1542  -4.7842
    -4.7076  -4.4150   0.5007   0.7357   0.7615   1.3479   1.4024   1.5866
     1.6292   1.8268   1.9016   2.2477   2.2701   2.3002   2.5075   3.1925
     3.2940   3.3315   3.3381   3.4549   3.7010   3.7553   3.9191   4.0604
     4.6840   5.3110   5.3340   5.6736   6.0028   6.6468   6.7370   6.7756
     7.1931   7.5613

          k =-0.5081-0.3869 0.1485 ( 36477 PWs)   bands (ev):

   -44.1574 -44.1574 -22.2978 -22.2977 -22.2327 -22.2327 -22.0750 -22.0749
    -7.1369  -6.9303  -6.6321  -6.5970  -6.1699  -5.4961  -4.9637  -4.7480
    -4.6968  -4.4422   0.5174   0.7690   0.8959   1.0859   1.4056   1.4370
     1.5735   1.6838   2.0671   2.0764   2.3321   2.6817   2.9077   3.1660
     3.2998   3.3235   3.3616   3.4748   3.6253   3.7280   3.7828   4.1015
     4.3200   4.6011   5.9046   6.0373   6.2086   6.5604   6.7606   6.7913
     7.0599   7.4780

          k =-0.5081-0.3869-0.2971 ( 36492 PWs)   bands (ev):

   -44.1574 -44.1574 -22.2977 -22.2977 -22.2327 -22.2327 -22.0749 -22.0749
    -7.0452  -7.0452  -6.6344  -6.6344  -5.8435  -5.8435  -4.8423  -4.8423
    -4.5395  -4.5395   0.6430   0.6430   1.0975   1.0975   1.2415   1.2415
     1.5325   1.5325   2.0595   2.0595   2.8468   2.8468   3.2126   3.2126
     3.2580   3.2580   3.3448   3.3448   3.6696   3.6696   3.8375   3.8375
     4.1712   4.1712   6.1363   6.1363   6.6255   6.6255   6.7520   6.7520
     7.0897   7.0897

          k =-0.2541-0.3224 0.0000 ( 36485 PWs)   bands (ev):

   -44.1583 -44.1583 -22.3025 -22.3025 -22.2084 -22.2084 -22.0781 -22.0780
    -7.4912  -7.0703  -6.7669  -6.7563  -6.6070  -5.2419  -5.1575  -4.8936
    -4.8063  -4.0054   0.6176   0.9539   1.0010   1.2328   1.3550   1.5210
     2.0018   2.2164   2.2251   2.3948   2.5182   3.1627   3.2479   3.3325
     3.5241   3.6968   3.7901   3.8028   3.9725   4.0485   4.1191   4.2002
     4.3917   4.6469   5.7779   6.0324   6.3812   6.5183   6.6860   6.8814
     6.9551   7.0075

          k =-0.2541-0.3224 0.1485 ( 36445 PWs)   bands (ev):

   -44.1583 -44.1583 -22.3025 -22.3025 -22.2084 -22.2084 -22.0781 -22.0780
    -7.4533  -7.1810  -6.7861  -6.7601  -6.4081  -5.6275  -4.9627  -4.8309
    -4.6936  -4.0949   0.6261   0.9501   1.0781   1.1191   1.2206   1.6716
     1.8868   2.2870   2.4142   2.5193   2.6185   2.9126   3.2489   3.3133
     3.3317   3.5053   3.7784   3.8776   3.9336   4.0527   4.0851   4.1433
     4.6835   5.0276   5.7675   5.8279   6.1802   6.3005   6.6778   6.7232
     7.1704   7.2599

          k =-0.2541-0.3224-0.2971 ( 36442 PWs)   bands (ev):

   -44.1583 -44.1583 -22.3025 -22.3025 -22.2084 -22.2084 -22.0780 -22.0780
    -7.3434  -7.3434  -6.7764  -6.7764  -6.0455  -6.0455  -4.8905  -4.8905
    -4.3443  -4.3443   0.7380   0.7380   1.1419   1.1419   1.3457   1.3457
     2.2598   2.2598   2.5185   2.5185   2.7685   2.7685   3.1664   3.1664
     3.3112   3.3112   3.7947   3.7947   3.9983   3.9983   4.1292   4.1292
     5.2060   5.2060   5.6567   5.6567   6.0160   6.0160   6.6813   6.6813
     7.3739   7.3740

          k = 0.0000-0.2579 0.0000 ( 36445 PWs)   bands (ev):

   -44.1587 -44.1587 -22.3044 -22.3044 -22.1983 -22.1983 -22.0793 -22.0793
    -7.6123  -7.1621  -6.8680  -6.7945  -6.6561  -5.2732  -5.1710  -4.9344
    -4.8486  -3.8697   0.5464   0.8117   0.8197   1.0843   1.5556   1.6553
     2.4249   2.5262   2.6077   3.0365   3.0426   3.1802   3.1986   3.2180
     3.2472   3.5199   3.7577   3.9971   4.0704   4.0812   4.1423   4.6257
     5.2100   5.4366   5.5874   5.6371   5.9073   6.1725   6.5943   6.6534
     6.9330   7.2519

          k = 0.0000-0.2579 0.1485 ( 36452 PWs)   bands (ev):

   -44.1587 -44.1587 -22.3044 -22.3044 -22.1983 -22.1983 -22.0793 -22.0793
    -7.5734  -7.2888  -6.8400  -6.7990  -6.4853  -5.6844  -4.9784  -4.8695
    -4.6964  -3.9829   0.5645   0.8497   0.9885   1.0804   1.1130   2.0916
     2.1767   2.4482   2.5772   3.0488   3.0787   3.1282   3.1470   3.1747
     3.6443   3.6462   3.6868   3.9309   4.0214   4.1291   4.1708   4.6467
     4.9631   5.0309   5.7210   5.9181   6.0921   6.1098   6.5305   6.7728
     6.8469   7.2391

          k = 0.0000-0.2579-0.2971 ( 36454 PWs)   bands (ev):

   -44.1587 -44.1587 -22.3044 -22.3044 -22.1983 -22.1983 -22.0793 -22.0793
    -7.4601  -7.4601  -6.8165  -6.8165  -6.1205  -6.1205  -4.9198  -4.9198
    -4.2865  -4.2865   0.7419   0.7419   0.9399   0.9399   1.5123   1.5123
     2.5090   2.5090   2.7322   2.7322   3.0730   3.0730   3.1332   3.1332
     3.7698   3.7698   3.8632   3.8632   4.0915   4.0915   4.4344   4.4344
     4.7384   4.7384   5.9077   5.9077   6.3195   6.3195   6.3857   6.3857
     7.1851   7.1851

          k = 1.5243 0.0000 0.0000 ( 36439 PWs)   bands (ev):

   -44.1574 -44.1574 -22.2978 -22.2977 -22.2327 -22.2327 -22.0750 -22.0749
    -7.1618  -6.8758  -6.6340  -6.4797  -6.4071  -5.1977  -5.1581  -4.7850
    -4.7056  -4.4154   0.5051   0.7294   0.7556   1.3512   1.5242   1.5521
     1.6165   1.8493   1.8790   2.2665   2.2777   2.2909   2.5186   3.1380
     3.2738   3.3104   3.3511   3.5216   3.6535   3.6891   3.9142   4.0737
     4.6792   5.3077   5.3135   5.6511   6.0284   6.6106   6.8070   6.8077
     7.1473   7.5895

          k = 1.5243 0.0000 0.1485 ( 36476 PWs)   bands (ev):

   -44.1574 -44.1574 -22.2978 -22.2977 -22.2327 -22.2327 -22.0750 -22.0749
    -7.1289  -6.9253  -6.6393  -6.6052  -6.1698  -5.4951  -4.9692  -4.7481
    -4.6949  -4.4414   0.5210   0.7679   0.8904   1.0843   1.4303   1.5125
     1.5401   1.6926   2.0727   2.0870   2.3243   2.6959   2.9206   3.1115
     3.2638   3.3345   3.3480   3.5614   3.5689   3.6991   3.7605   4.1099
     4.2809   4.5988   5.8797   6.0431   6.2083   6.5325   6.8067   6.8515
     7.0117   7.4894

          k = 1.5243 0.0000-0.2971 ( 36508 PWs)   bands (ev):

   -44.1574 -44.1574 -22.2977 -22.2977 -22.2327 -22.2327 -22.0749 -22.0749
    -7.0377  -7.0377  -6.6436  -6.6436  -5.8423  -5.8423  -4.8463  -4.8463
    -4.5372  -4.5372   0.6469   0.6469   1.0953   1.0953   1.2376   1.2376
     1.5763   1.5763   2.0562   2.0562   2.8570   2.8570   3.1592   3.1592
     3.2902   3.2902   3.3516   3.3516   3.6450   3.6450   3.8355   3.8355
     4.1433   4.1433   6.1207   6.1207   6.6203   6.6203   6.7714   6.7714
     7.0971   7.0971

          k =-0.2541-0.4514 0.0000 ( 36444 PWs)   bands (ev):

   -44.1583 -44.1583 -22.3025 -22.3025 -22.2084 -22.2084 -22.0781 -22.0780
    -7.4779  -7.0587  -6.7689  -6.7645  -6.6292  -5.2402  -5.1654  -4.8953
    -4.8026  -4.0064   0.6252   0.9650   1.1103   1.2759   1.4451   1.5182
     2.0403   2.2045   2.2503   2.2982   2.4377   3.1352   3.2112   3.2730
     3.5212   3.7264   3.7389   3.7590   3.9769   3.9937   4.0909   4.1743
     4.4486   4.5620   5.8406   6.0386   6.3958   6.4733   6.7363   6.8892
     6.9074   6.9993

          k =-0.2541-0.4514 0.1485 ( 36461 PWs)   bands (ev):

   -44.1583 -44.1583 -22.3025 -22.3025 -22.2084 -22.2084 -22.0781 -22.0780
    -7.4400  -7.1673  -6.8004  -6.7762  -6.4123  -5.6258  -4.9762  -4.8302
    -4.6878  -4.0946   0.6301   0.9688   1.0914   1.2553   1.3035   1.6923
     1.9005   2.2602   2.3151   2.4759   2.6362   2.9027   3.1965   3.2101
     3.3582   3.5031   3.8038   3.8282   3.9203   4.0065   4.0609   4.1009
     4.6968   4.9946   5.7607   5.8446   6.1917   6.2460   6.7433   6.7554
     7.1364   7.2553

          k =-0.2541-0.4514-0.2971 ( 36490 PWs)   bands (ev):

   -44.1583 -44.1583 -22.3025 -22.3025 -22.2084 -22.2084 -22.0780 -22.0780
    -7.3298  -7.3298  -6.7937  -6.7937  -6.0444  -6.0444  -4.8970  -4.8970
    -4.3412  -4.3412   0.7386   0.7386   1.2650   1.2650   1.3638   1.3638
     2.2357   2.2357   2.4495   2.4495   2.7769   2.7769   3.1788   3.1788
     3.2341   3.2341   3.7852   3.7852   4.0037   4.0037   4.0732   4.0732
     5.2012   5.2012   5.6350   5.6350   5.9888   5.9888   6.7462   6.7462
     7.3510   7.3510

          k = 0.0000-0.3869 0.0000 ( 36477 PWs)   bands (ev):

   -44.1587 -44.1587 -22.3044 -22.3044 -22.1983 -22.1983 -22.0793 -22.0793
    -7.5959  -7.1442  -6.8649  -6.8124  -6.6871  -5.2712  -5.1811  -4.9380
    -4.8428  -3.8713   0.5701   0.8270   0.9808   1.1511   1.6206   1.6772
     2.4350   2.5050   2.6267   2.9258   3.0223   3.0279   3.0914   3.1750
     3.3350   3.4934   3.7885   3.8999   3.9811   4.0080   4.0700   4.6301
     5.1935   5.3965   5.6046   5.7146   5.9395   6.2056   6.5492   6.6670
     6.9348   7.2166

          k = 0.0000-0.3869 0.1485 ( 36452 PWs)   bands (ev):

   -44.1587 -44.1587 -22.3044 -22.3044 -22.1983 -22.1983 -22.0793 -22.0793
    -7.5569  -7.2709  -6.8574  -6.8189  -6.4938  -5.6824  -4.9971  -4.8678
    -4.6888  -3.9828   0.5762   0.9684   1.0554   1.1216   1.1980   2.1191
     2.2012   2.4592   2.5945   2.8642   2.8948   3.0346   3.1182   3.2705
     3.6243   3.6244   3.6866   3.9093   4.0049   4.0175   4.0621   4.6511
     4.9592   5.0202   5.7548   5.9248   6.0899   6.1102   6.4926   6.7751
     6.9024   7.1999

          k = 0.0000-0.3869-0.2971 ( 36454 PWs)   bands (ev):

   -44.1587 -44.1587 -22.3044 -22.3044 -22.1983 -22.1983 -22.0793 -22.0793
    -7.4430  -7.4430  -6.8383  -6.8383  -6.1201  -6.1201  -4.9281  -4.9281
    -4.2828  -4.2828   0.7421   0.7421   1.0933   1.0933   1.5398   1.5398
     2.5227   2.5227   2.6797   2.6797   2.9881   2.9881   3.0601   3.0601
     3.7771   3.7771   3.8513   3.8513   3.9875   3.9875   4.4219   4.4219
     4.7409   4.7409   5.8722   5.8722   6.3410   6.3410   6.3893   6.3893
     7.1594   7.1594

          k =-2.0325 0.0000 0.0000 ( 36452 PWs)   bands (ev):

   -44.1587 -44.1587 -22.3044 -22.3044 -22.1983 -22.1983 -22.0793 -22.0793
    -7.5887  -7.1367  -6.8637  -6.8185  -6.7017  -5.2704  -5.1854  -4.9386
    -4.8411  -3.8719   0.5734   0.8335   1.0870   1.1600   1.6620   1.6858
     2.4393   2.4860   2.6350   2.7806   2.9339   3.0214   3.1216   3.1728
     3.4254   3.4823   3.7906   3.8176   3.9466   3.9668   4.0698   4.6320
     5.1868   5.3852   5.6118   5.7516   5.9539   6.2152   6.4990   6.6914
     6.9355   7.2030

          k =-2.0325 0.0000 0.1485 ( 36456 PWs)   bands (ev):

   -44.1587 -44.1587 -22.3044 -22.3044 -22.1983 -22.1983 -22.0793 -22.0793
    -7.5497  -7.2630  -6.8652  -6.8274  -6.4972  -5.6815  -5.0043  -4.8675
    -4.6858  -3.9827   0.5759   1.0128   1.0662   1.1634   1.2635   2.1305
     2.2091   2.4638   2.6020   2.7319   2.7957   3.0284   3.1139   3.3344
     3.6038   3.6162   3.7031   3.8789   3.9602   4.0158   4.0243   4.6530
     4.9575   5.0181   5.7727   5.9278   6.0734   6.1172   6.4765   6.7760
     6.9191   7.1853

          k =-2.0325 0.0000-0.2971 ( 36460 PWs)   bands (ev):

   -44.1587 -44.1587 -22.3044 -22.3044 -22.1983 -22.1983 -22.0793 -22.0793
    -7.4356  -7.4356  -6.8478  -6.8478  -6.1199  -6.1199  -4.9316  -4.9316
    -4.2812  -4.2812   0.7389   0.7389   1.1745   1.1745   1.5530   1.5530
     2.5286   2.5286   2.6035   2.6035   2.9655   2.9655   3.0545   3.0545
     3.7753   3.7753   3.8464   3.8464   3.9555   3.9555   4.4173   4.4173
     4.7420   4.7420   5.8564   5.8564   6.3472   6.3472   6.3909   6.3909
     7.1464   7.1464

     the Fermi energy is     5.2674 ev

!    total energy              =   -4240.93207723 Ry

     total all-electron energy =   -150287.625772 Ry
     estimated scf accuracy    <          4.4E-11 Ry
     smearing contrib. (-TS)   =       0.00006604 Ry
     internal energy E=F+TS    =   -4240.93214326 Ry

     The total energy is F=E-TS. E is the sum of the following terms:
     one-electron contribution =    -164.57755368 Ry
     hartree contribution      =     115.75315315 Ry
     xc contribution           =    -201.40629370 Ry
     ewald contribution        =    -223.19309222 Ry
     one-center paw contrib.   =   -3767.50835680 Ry

     convergence has been achieved in  19 iterations

     Forces acting on atoms (cartesian axes, Ry/au):

     atom    1 type  1   force =     0.00000000   -0.02454631    0.00000000
     atom    2 type  1   force =     0.00000000    0.02454631    0.00000000
     atom    3 type  2   force =     0.00000000    0.00247258    0.00000000
     atom    4 type  2   force =     0.00000000   -0.00247258    0.00000000
     atom    5 type  2   force =     0.00000000    0.00540934   -0.00013634
     atom    6 type  2   force =     0.00000000   -0.00540934    0.00013634
     atom    7 type  2   force =    -0.00000000    0.00540934    0.00013634
     atom    8 type  2   force =    -0.00000000   -0.00540934   -0.00013634
     atom    9 type  2   force =     0.00000000    0.02030884    0.01519814
     atom   10 type  2   force =     0.00000000   -0.02030884   -0.01519814
     atom   11 type  2   force =    -0.00000000    0.02030884   -0.01519814
     atom   12 type  2   force =    -0.00000000   -0.02030884    0.01519814

     Total force =     0.062515     Total SCF correction =     0.000010


     Computing stress (Cartesian axis) and pressure

          total   stress  (Ry/bohr**3)                   (kbar)     P=       -4.98
  -0.00001351  -0.00000000   0.00000000           -1.99       -0.00        0.00
   0.00000000  -0.00003396   0.00000000            0.00       -5.00        0.00
   0.00000000   0.00000000  -0.00005399            0.00        0.00       -7.94

 
     init_run     :     19.74s CPU     21.62s WALL (       1 calls)
     electrons    :   1018.28s CPU   1030.06s WALL (       1 calls)
     forces       :      6.81s CPU      7.03s WALL (       1 calls)
     stress       :     43.45s CPU     44.06s WALL (       1 calls)

     Called by init_run:
     wfcinit      :     15.03s CPU     15.21s WALL (       1 calls)
     potinit      :      1.30s CPU      1.35s WALL (       1 calls)
     hinit0       :      2.05s CPU      3.09s WALL (       1 calls)

     Called by electrons:
     c_bands      :    836.48s CPU    839.83s WALL (      20 calls)
     sum_band     :    152.94s CPU    157.53s WALL (      20 calls)
     v_of_rho     :      6.49s CPU      6.78s WALL (      20 calls)
     newd         :     16.03s CPU     19.72s WALL (      20 calls)
     PAW_pot      :      6.34s CPU      6.35s WALL (      20 calls)
     mix_rho      :      0.97s CPU      1.01s WALL (      20 calls)

     Called by c_bands:
     init_us_2    :     12.45s CPU     12.51s WALL (    2709 calls)
     cegterg      :    752.52s CPU    755.25s WALL (    1260 calls)

     Called by *egterg:
     cdiaghg      :     29.51s CPU     29.57s WALL (    8825 calls)
     h_psi        :    574.23s CPU    576.84s WALL (    8951 calls)
     s_psi        :     47.59s CPU     47.65s WALL (    8951 calls)
     g_psi        :      2.06s CPU      2.08s WALL (    7628 calls)

     Called by h_psi:
     h_psi:calbec :     41.58s CPU     41.64s WALL (    8951 calls)
     vloc_psi     :    482.01s CPU    484.41s WALL (    8951 calls)
     add_vuspsi   :     47.42s CPU     47.48s WALL (    8951 calls)

     General routines
     calbec       :     55.56s CPU     55.65s WALL (   10526 calls)
     fft          :      3.82s CPU      4.39s WALL (     284 calls)
     ffts         :      0.09s CPU      0.09s WALL (      40 calls)
     fftw         :    449.42s CPU    451.59s WALL (  458410 calls)
     interpolate  :      0.34s CPU      0.34s WALL (      20 calls)
 
     Parallel routines
 
     PWSCF        :  18m 8.52s CPU  18m23.10s WALL

 
   This run was terminated on:  15:42:48  19Nov2021            

=------------------------------------------------------------------------------=
   JOB DONE.
=------------------------------------------------------------------------------=
