
     Program PWSCF v.6.8 starts on 19Nov2021 at 15:18: 7 

     This program is part of the open-source Quantum ESPRESSO suite
     for quantum simulation of materials; please cite
         "P. Giannozzi et al., J. Phys.:Condens. Matter 21 395502 (2009);
         "P. Giannozzi et al., J. Phys.:Condens. Matter 29 465901 (2017);
         "P. Giannozzi et al., J. Chem. Phys. 152 154105 (2020);
          URL http://www.quantum-espresso.org", 
     in publications or presentations arising from this work. More details at
     http://www.quantum-espresso.org/quote

     Parallel version (MPI), running on    10 processors

     MPI processes distributed on     1 nodes
     R & G space division:  proc/nbgrp/npool/nimage =      10
     73255 MiB available memory on the printing compute node when the environment starts
 
     Waiting for input...
     Reading input from standard input

     Current dimensions of program PWSCF are:
     Max number of different atomic species (ntypx) = 10
     Max number of k-points (npk) =  40000
     Max angular momentum in pseudopotentials (lmaxx) =  4
     file Zr.pbe-spn-kjpaw_psl.1.0.0.UPF: wavefunction(s)  4S 4P renormalized
     file Te.pbe-n-kjpaw_psl.1.0.0.UPF: wavefunction(s)  5S 5P renormalized
     Message from routine setup:
     using ibrav=0 with symmetry is DISCOURAGED, use correct ibrav instead

     Subspace diagonalization in iterative solution of the eigenvalue problem:
     a serial algorithm will be used

 
     Parallelization info
     --------------------
     sticks:   dense  smooth     PW     G-vecs:    dense   smooth      PW
     Min         734     293     87               115340    29174    4753
     Max         735     295     88               115345    29176    4760
     Sum        7345    2937    873              1153415   291749   47557
 
     Using Slab Decomposition
 


     bravais-lattice index     =            0
     lattice parameter (alat)  =      15.5510  a.u.
     unit-cell volume          =    3018.5011 (a.u.)^3
     number of atoms/cell      =           12
     number of atomic types    =            2
     number of electrons       =        84.00
     number of Kohn-Sham states=           50
     kinetic-energy cutoff     =      80.0000  Ry
     charge density cutoff     =     800.0000  Ry
     scf convergence threshold =      1.0E-10
     mixing beta               =       0.7000
     number of iterations used =            8  plain     mixing
     Exchange-correlation= SLA  PW   PBX  PBC
                           (   1   4   3   4   0   0   0)

     celldm(1)=  15.551040  celldm(2)=   0.000000  celldm(3)=   0.000000
     celldm(4)=   0.000000  celldm(5)=   0.000000  celldm(6)=   0.000000

     crystal axes: (cart. coord. in units of alat)
               a(1) = (   0.246007  -0.969268   0.000000 )  
               a(2) = (   0.246007   0.969268   0.000000 )  
               a(3) = (   0.000000   0.000000   1.683031 )  

     reciprocal axes: (cart. coord. in units 2 pi/alat)
               b(1) = (  2.032465 -0.515853  0.000000 )  
               b(2) = (  2.032465  0.515853  0.000000 )  
               b(3) = (  0.000000  0.000000  0.594166 )  


     PseudoPot. # 1 for Zr read from file:
     pseudo/Zr.pbe-spn-kjpaw_psl.1.0.0.UPF
     MD5 check sum: 02112c41713a0468aff2bb39ef194e36
     Pseudo is Projector augmented-wave + core cor, Zval = 12.0
     Generated using &quot;atomic&quot; code by A. Dal Corso  v.6.2.2
     Shape of augmentation charge: PSQ
     Using radial grid of 1225 points,  6 beta functions with: 
                l(1) =   0
                l(2) =   0
                l(3) =   1
                l(4) =   1
                l(5) =   2
                l(6) =   2
     Q(r) pseudized with 0 coefficients 


     PseudoPot. # 2 for Te read from file:
     pseudo/Te.pbe-n-kjpaw_psl.1.0.0.UPF
     MD5 check sum: 66247bff2bd9dbf220fbb0bf5ab56e9d
     Pseudo is Projector augmented-wave + core cor, Zval =  6.0
     Generated using &quot;atomic&quot; code by A. Dal Corso  v.6.3
     Shape of augmentation charge: PSQ
     Using radial grid of 1245 points,  6 beta functions with: 
                l(1) =   0
                l(2) =   0
                l(3) =   1
                l(4) =   1
                l(5) =   2
                l(6) =   2
     Q(r) pseudized with 0 coefficients 


     atomic species   valence    mass     pseudopotential
        Zr            12.00    91.22000     Zr( 1.00)
        Te             6.00   127.60000     Te( 1.00)

      8 Sym. Ops., with inversion, found ( 4 have fractional translation)



   Cartesian axes

     site n.     atom                  positions (alat units)
         1           Zr  tau(   1) = (   0.0000000   0.6099354   0.4207578  )
         2           Zr  tau(   2) = (   0.2460067   0.3593327   1.2622733  )
         3           Te  tau(   3) = (   0.2460067   0.3343354   0.4207578  )
         4           Te  tau(   4) = (   0.0000000   0.6349328   1.2622733  )
         5           Te  tau(   5) = (   0.2460067   0.8078557   0.2507186  )
         6           Te  tau(   6) = (   0.0000000   0.1614124   1.4323125  )
         7           Te  tau(   7) = (   0.2460067   0.8078557   0.5907969  )
         8           Te  tau(   8) = (   0.0000000   0.1614124   1.0922341  )
         9           Te  tau(   9) = (   0.0000000   0.4073100   0.7236488  )
        10           Te  tau(  10) = (   0.2460067   0.5619581   0.9593823  )
        11           Te  tau(  11) = (   0.0000000   0.4073100   0.1178668  )
        12           Te  tau(  12) = (   0.2460067   0.5619581   1.5651643  )

     number of k points=    63  Methfessel-Paxton smearing, width (Ry)=  0.0030
                       cart. coord. in units 2pi/alat
        k(    1) = (   0.0000000   0.0000000   0.0000000), wk =   0.0078125
        k(    2) = (   0.0000000   0.0000000   0.1485415), wk =   0.0156250
        k(    3) = (   0.0000000   0.0000000  -0.2970830), wk =   0.0078125
        k(    4) = (   0.2540581   0.0644816   0.0000000), wk =   0.0312500
        k(    5) = (   0.2540581   0.0644816   0.1485415), wk =   0.0625000
        k(    6) = (   0.2540581   0.0644816  -0.2970830), wk =   0.0312500
        k(    7) = (   0.5081162   0.1289633   0.0000000), wk =   0.0312500
        k(    8) = (   0.5081162   0.1289633   0.1485415), wk =   0.0625000
        k(    9) = (   0.5081162   0.1289633  -0.2970830), wk =   0.0312500
        k(   10) = (   0.7621743   0.1934449   0.0000000), wk =   0.0312500
        k(   11) = (   0.7621743   0.1934449   0.1485415), wk =   0.0625000
        k(   12) = (   0.7621743   0.1934449  -0.2970830), wk =   0.0312500
        k(   13) = (  -1.0162324  -0.2579266   0.0000000), wk =   0.0156250
        k(   14) = (  -1.0162324  -0.2579266   0.1485415), wk =   0.0312500
        k(   15) = (  -1.0162324  -0.2579266  -0.2970830), wk =   0.0156250
        k(   16) = (   0.5081162   0.0000000   0.0000000), wk =   0.0156250
        k(   17) = (   0.5081162   0.0000000   0.1485415), wk =   0.0312500
        k(   18) = (   0.5081162   0.0000000  -0.2970830), wk =   0.0156250
        k(   19) = (   0.7621743   0.0644816   0.0000000), wk =   0.0312500
        k(   20) = (   0.7621743   0.0644816   0.1485415), wk =   0.0625000
        k(   21) = (   0.7621743   0.0644816  -0.2970830), wk =   0.0312500
        k(   22) = (   1.0162324   0.1289633   0.0000000), wk =   0.0312500
        k(   23) = (   1.0162324   0.1289633   0.1485415), wk =   0.0625000
        k(   24) = (   1.0162324   0.1289633  -0.2970830), wk =   0.0312500
        k(   25) = (  -0.7621743  -0.3224082   0.0000000), wk =   0.0312500
        k(   26) = (  -0.7621743  -0.3224082   0.1485415), wk =   0.0625000
        k(   27) = (  -0.7621743  -0.3224082  -0.2970830), wk =   0.0312500
        k(   28) = (  -0.5081162  -0.2579266   0.0000000), wk =   0.0312500
        k(   29) = (  -0.5081162  -0.2579266   0.1485415), wk =   0.0625000
        k(   30) = (  -0.5081162  -0.2579266  -0.2970830), wk =   0.0312500
        k(   31) = (  -0.2540581  -0.1934449   0.0000000), wk =   0.0312500
        k(   32) = (  -0.2540581  -0.1934449   0.1485415), wk =   0.0625000
        k(   33) = (  -0.2540581  -0.1934449  -0.2970830), wk =   0.0312500
        k(   34) = (   0.0000000  -0.1289633   0.0000000), wk =   0.0156250
        k(   35) = (   0.0000000  -0.1289633   0.1485415), wk =   0.0312500
        k(   36) = (   0.0000000  -0.1289633  -0.2970830), wk =   0.0156250
        k(   37) = (   1.0162324   0.0000000   0.0000000), wk =   0.0156250
        k(   38) = (   1.0162324   0.0000000   0.1485415), wk =   0.0312500
        k(   39) = (   1.0162324   0.0000000  -0.2970830), wk =   0.0156250
        k(   40) = (   1.2702905   0.0644816   0.0000000), wk =   0.0312500
        k(   41) = (   1.2702905   0.0644816   0.1485415), wk =   0.0625000
        k(   42) = (   1.2702905   0.0644816  -0.2970830), wk =   0.0312500
        k(   43) = (  -0.5081162  -0.3868899   0.0000000), wk =   0.0312500
        k(   44) = (  -0.5081162  -0.3868899   0.1485415), wk =   0.0625000
        k(   45) = (  -0.5081162  -0.3868899  -0.2970830), wk =   0.0312500
        k(   46) = (  -0.2540581  -0.3224082   0.0000000), wk =   0.0312500
        k(   47) = (  -0.2540581  -0.3224082   0.1485415), wk =   0.0625000
        k(   48) = (  -0.2540581  -0.3224082  -0.2970830), wk =   0.0312500
        k(   49) = (   0.0000000  -0.2579266   0.0000000), wk =   0.0156250
        k(   50) = (   0.0000000  -0.2579266   0.1485415), wk =   0.0312500
        k(   51) = (   0.0000000  -0.2579266  -0.2970830), wk =   0.0156250
        k(   52) = (   1.5243485   0.0000000   0.0000000), wk =   0.0156250
        k(   53) = (   1.5243485   0.0000000   0.1485415), wk =   0.0312500
        k(   54) = (   1.5243485   0.0000000  -0.2970830), wk =   0.0156250
        k(   55) = (  -0.2540581  -0.4513715   0.0000000), wk =   0.0312500
        k(   56) = (  -0.2540581  -0.4513715   0.1485415), wk =   0.0625000
        k(   57) = (  -0.2540581  -0.4513715  -0.2970830), wk =   0.0312500
        k(   58) = (   0.0000000  -0.3868899   0.0000000), wk =   0.0156250
        k(   59) = (   0.0000000  -0.3868899   0.1485415), wk =   0.0312500
        k(   60) = (   0.0000000  -0.3868899  -0.2970830), wk =   0.0156250
        k(   61) = (  -2.0324647   0.0000000   0.0000000), wk =   0.0078125
        k(   62) = (  -2.0324647   0.0000000   0.1485415), wk =   0.0156250
        k(   63) = (  -2.0324647   0.0000000  -0.2970830), wk =   0.0078125

     Dense  grid:  1153415 G-vectors     FFT dimensions: ( 144, 144, 240)

     Smooth grid:   291749 G-vectors     FFT dimensions: (  90,  90, 150)

     Estimated max dynamical RAM per process >     657.19 MB

     Estimated total dynamical RAM >       6.42 GB

     Initial potential from superposition of free atoms

     starting charge   83.99353, renormalised to   84.00000
     Starting wfcs are   66 randomized atomic wfcs
     Checking if some PAW data can be deallocated... 

     total cpu time spent up to now is       19.1 secs

     Self-consistent Calculation

     iteration #  1     ecut=    80.00 Ry     beta= 0.70
     Davidson diagonalization with overlap
     ethr =  1.00E-02,  avg # of iterations =  2.0

     Threshold (ethr) on eigenvalues was too large:
     Diagonalizing with lowered threshold

     Davidson diagonalization with overlap
     ethr =  3.86E-04,  avg # of iterations =  4.0

     total cpu time spent up to now is      101.5 secs

     total energy              =   -4240.72237458 Ry
     estimated scf accuracy    <       0.42872591 Ry

     iteration #  2     ecut=    80.00 Ry     beta= 0.70
     Davidson diagonalization with overlap
     ethr =  5.10E-04,  avg # of iterations =  7.7

     total cpu time spent up to now is      161.4 secs

     total energy              =   -4240.62535969 Ry
     estimated scf accuracy    <       2.16910496 Ry

     iteration #  3     ecut=    80.00 Ry     beta= 0.70
     Davidson diagonalization with overlap
     ethr =  5.10E-04,  avg # of iterations =  5.1

     total cpu time spent up to now is      212.3 secs

     total energy              =   -4240.92088947 Ry
     estimated scf accuracy    <       0.02022218 Ry

     iteration #  4     ecut=    80.00 Ry     beta= 0.70
     Davidson diagonalization with overlap
     c_bands:  1 eigenvalues not converged
     c_bands:  1 eigenvalues not converged
     c_bands:  1 eigenvalues not converged
     c_bands:  2 eigenvalues not converged
     c_bands:  1 eigenvalues not converged
     c_bands:  1 eigenvalues not converged
     c_bands:  1 eigenvalues not converged
     c_bands:  2 eigenvalues not converged
     c_bands:  2 eigenvalues not converged
     c_bands:  1 eigenvalues not converged
     c_bands:  1 eigenvalues not converged
     c_bands:  2 eigenvalues not converged
     c_bands:  1 eigenvalues not converged
     ethr =  2.41E-05,  avg # of iterations = 17.1

     total cpu time spent up to now is      302.9 secs

     total energy              =   -4240.93876885 Ry
     estimated scf accuracy    <       0.11000868 Ry

     iteration #  5     ecut=    80.00 Ry     beta= 0.70
     Davidson diagonalization with overlap
     ethr =  2.41E-05,  avg # of iterations =  5.6

     total cpu time spent up to now is      349.1 secs

     total energy              =   -4240.94162852 Ry
     estimated scf accuracy    <       0.02412301 Ry

     iteration #  6     ecut=    80.00 Ry     beta= 0.70
     Davidson diagonalization with overlap
     ethr =  2.41E-05,  avg # of iterations =  2.7

     total cpu time spent up to now is      388.1 secs

     total energy              =   -4240.94280419 Ry
     estimated scf accuracy    <       0.00336336 Ry

     iteration #  7     ecut=    80.00 Ry     beta= 0.70
     Davidson diagonalization with overlap
     c_bands:  1 eigenvalues not converged
     c_bands:  1 eigenvalues not converged
     c_bands:  1 eigenvalues not converged
     c_bands:  1 eigenvalues not converged
     ethr =  4.00E-06,  avg # of iterations = 12.4

     total cpu time spent up to now is      455.6 secs

     total energy              =   -4240.94454078 Ry
     estimated scf accuracy    <       0.00270752 Ry

     iteration #  8     ecut=    80.00 Ry     beta= 0.70
     Davidson diagonalization with overlap
     c_bands:  1 eigenvalues not converged
     c_bands:  1 eigenvalues not converged
     ethr =  3.22E-06,  avg # of iterations =  3.1

     total cpu time spent up to now is      492.7 secs

     total energy              =   -4240.94454978 Ry
     estimated scf accuracy    <       0.00058692 Ry

     iteration #  9     ecut=    80.00 Ry     beta= 0.70
     Davidson diagonalization with overlap
     c_bands:  1 eigenvalues not converged
     ethr =  6.99E-07,  avg # of iterations =  6.7

     total cpu time spent up to now is      538.9 secs

     total energy              =   -4240.94468443 Ry
     estimated scf accuracy    <       0.00000569 Ry

     iteration # 10     ecut=    80.00 Ry     beta= 0.70
     Davidson diagonalization with overlap
     ethr =  6.77E-09,  avg # of iterations = 10.5

     total cpu time spent up to now is      612.7 secs

     total energy              =   -4240.94470210 Ry
     estimated scf accuracy    <       0.00001468 Ry

     iteration # 11     ecut=    80.00 Ry     beta= 0.70
     Davidson diagonalization with overlap
     c_bands:  1 eigenvalues not converged
     ethr =  6.77E-09,  avg # of iterations =  4.6

     total cpu time spent up to now is      658.6 secs

     total energy              =   -4240.94470473 Ry
     estimated scf accuracy    <       0.00000007 Ry

     iteration # 12     ecut=    80.00 Ry     beta= 0.70
     Davidson diagonalization with overlap
     c_bands:  1 eigenvalues not converged
     ethr =  7.77E-11,  avg # of iterations =  9.3

     total cpu time spent up to now is      727.3 secs

     total energy              =   -4240.94470480 Ry
     estimated scf accuracy    <       0.00000021 Ry

     iteration # 13     ecut=    80.00 Ry     beta= 0.70
     Davidson diagonalization with overlap
     ethr =  7.77E-11,  avg # of iterations =  4.1

     total cpu time spent up to now is      771.8 secs

     total energy              =   -4240.94470482 Ry
     estimated scf accuracy    <          9.6E-09 Ry

     iteration # 14     ecut=    80.00 Ry     beta= 0.70
     Davidson diagonalization with overlap
     ethr =  1.14E-11,  avg # of iterations =  6.9

     total cpu time spent up to now is      826.3 secs

     total energy              =   -4240.94470482 Ry
     estimated scf accuracy    <          5.4E-09 Ry

     iteration # 15     ecut=    80.00 Ry     beta= 0.70
     Davidson diagonalization with overlap
     ethr =  6.46E-12,  avg # of iterations =  1.5

     total cpu time spent up to now is      861.3 secs

     total energy              =   -4240.94470482 Ry
     estimated scf accuracy    <          2.4E-09 Ry

     iteration # 16     ecut=    80.00 Ry     beta= 0.70
     Davidson diagonalization with overlap
     ethr =  2.85E-12,  avg # of iterations =  4.9

     total cpu time spent up to now is      902.8 secs

     End of self-consistent calculation

          k = 0.0000 0.0000 0.0000 ( 36359 PWs)   bands (ev):

   -44.1490 -44.1490 -22.2881 -22.2881 -22.1863 -22.1863 -22.0716 -22.0715
    -7.6856  -7.1534  -7.1020  -6.7919  -6.4937  -5.3477  -5.0773  -4.8900
    -4.8357  -3.8587   0.4239   0.7057   0.7644   1.0740   1.5012   1.5633
     2.4097   2.4477   2.6528   2.9762   3.0124   3.0136   3.1343   3.4933
     3.5883   3.6558   3.8803   4.0501   4.1420   4.2994   4.3233   4.6326
     5.0594   5.5484   5.5912   5.6658   5.8480   6.0146   6.3446   6.8151
     6.9432   7.2872

          k = 0.0000 0.0000 0.1485 ( 36415 PWs)   bands (ev):

   -44.1490 -44.1490 -22.2881 -22.2881 -22.1863 -22.1863 -22.0716 -22.0715
    -7.6467  -7.3513  -6.9346  -6.8024  -6.3915  -5.6925  -4.9052  -4.8466
    -4.6992  -3.9759   0.4720   0.7434   0.9114   1.0471   1.0536   1.9978
     2.1038   2.4364   2.6036   2.9855   3.0099   3.1051   3.3579   3.3676
     3.6708   3.7426   3.8665   4.0437   4.0915   4.3191   4.3371   4.6454
     4.8850   5.0498   5.7371   5.9344   6.0126   6.0348   6.6053   6.6641
     6.7745   7.2576

          k = 0.0000 0.0000-0.2971 ( 36410 PWs)   bands (ev):

   -44.1490 -44.1490 -22.2881 -22.2881 -22.1863 -22.1863 -22.0715 -22.0715
    -7.5321  -7.5321  -6.8397  -6.8397  -6.0965  -6.0965  -4.8732  -4.8732
    -4.2864  -4.2864   0.6642   0.6642   0.8720   0.8720   1.4218   1.4218
     2.5100   2.5100   2.6865   2.6865   2.9998   2.9998   3.3974   3.3974
     3.8466   3.8466   3.9338   3.9338   4.3250   4.3250   4.4154   4.4154
     4.7096   4.7096   5.9609   5.9609   6.2292   6.2292   6.3825   6.3825
     7.1298   7.1298

          k = 0.2541 0.0645 0.0000 ( 36396 PWs)   bands (ev):

   -44.1486 -44.1486 -22.2862 -22.2862 -22.1963 -22.1962 -22.0704 -22.0703
    -7.5716  -7.0742  -6.9974  -6.7454  -6.4327  -5.3099  -5.0715  -4.8487
    -4.7935  -3.9987   0.5110   0.8394   0.8993   1.1926   1.3151   1.4468
     1.9179   2.0343   2.2095   2.5349   2.5845   3.0461   3.4421   3.6796
     3.6953   3.7206   3.7680   3.7931   4.0135   4.1866   4.2309   4.2583
     4.4684   4.6765   5.7170   5.9863   6.2697   6.5482   6.6220   6.8323
     7.0051   7.1461

          k = 0.2541 0.0645 0.1485 ( 36423 PWs)   bands (ev):

   -44.1487 -44.1486 -22.2862 -22.2862 -22.1963 -22.1962 -22.0703 -22.0703
    -7.5336  -7.2486  -6.8638  -6.7546  -6.3232  -5.6375  -4.8832  -4.8065
    -4.7029  -4.0927   0.5466   0.8795   0.9779   0.9871   1.1486   1.5743
     1.8499   2.3126   2.4234   2.5437   2.5485   2.9263   3.2747   3.3057
     3.6350   3.6907   3.8610   3.9001   4.0058   4.1028   4.2440   4.2930
     4.6895   5.0015   5.8115   5.8408   6.2082   6.2716   6.4674   6.6872
     7.2538   7.3024

          k = 0.2541 0.0645-0.2971 ( 36436 PWs)   bands (ev):

   -44.1487 -44.1487 -22.2862 -22.2862 -22.1963 -22.1963 -22.0703 -22.0703
    -7.4223  -7.4223  -6.7862  -6.7862  -6.0272  -6.0272  -4.8385  -4.8385
    -4.3505  -4.3505   0.6952   0.6952   0.9819   0.9819   1.2638   1.2638
     2.2996   2.2996   2.5471   2.5471   2.6824   2.6824   3.1141   3.1141
     3.5988   3.5988   3.8791   3.8791   4.0482   4.0482   4.2909   4.2909
     5.1503   5.1503   5.7498   5.7498   6.0955   6.0955   6.4579   6.4579
     7.4380   7.4381

          k = 0.5081 0.1290 0.0000 ( 36499 PWs)   bands (ev):

   -44.1477 -44.1477 -22.2815 -22.2814 -22.2202 -22.2202 -22.0674 -22.0673
    -7.2514  -6.8880  -6.6961  -6.6161  -6.2366  -5.2379  -5.1086  -4.7402
    -4.6895  -4.4210   0.5396   0.6658   0.7081   1.1973   1.2762   1.5068
     1.6701   1.8025   2.0227   2.1058   2.1680   2.3204   2.3328   3.2796
     3.3769   3.4395   3.4788   3.5811   3.7664   3.8682   3.9353   4.1563
     4.5739   5.2636   5.4217   5.9206   5.9569   6.5518   6.5645   6.8658
     7.4008   7.5666

          k = 0.5081 0.1290 0.1485 ( 36476 PWs)   bands (ev):

   -44.1477 -44.1477 -22.2814 -22.2814 -22.2202 -22.2202 -22.0674 -22.0673
    -7.2176  -6.9816  -6.6662  -6.6218  -6.1148  -5.5060  -4.9169  -4.7178
    -4.6866  -4.4536   0.5150   0.7218   0.8421   1.0709   1.2339   1.4259
     1.4801   1.6417   2.0318   2.0788   2.3234   2.5247   2.8135   3.3062
     3.3747   3.4149   3.4860   3.5821   3.6551   3.7611   3.8460   4.2163
     4.3768   4.5698   6.0483   6.1143   6.2311   6.5570   6.6069   6.7379
     7.2424   7.4893

          k = 0.5081 0.1290-0.2971 ( 36466 PWs)   bands (ev):

   -44.1477 -44.1477 -22.2814 -22.2814 -22.2202 -22.2202 -22.0673 -22.0673
    -7.1206  -7.1206  -6.6384  -6.6384  -5.8366  -5.8366  -4.7897  -4.7897
    -4.5547  -4.5547   0.6070   0.6070   1.0832   1.0832   1.2194   1.2194
     1.3760   1.3760   2.0578   2.0578   2.7583   2.7583   3.1232   3.1232
     3.3570   3.3570   3.5505   3.5505   3.7010   3.7010   3.8277   3.8277
     4.3021   4.3021   6.2841   6.2841   6.5388   6.5388   6.7852   6.7852
     7.0982   7.0982

          k = 0.7622 0.1934 0.0000 ( 36521 PWs)   bands (ev):

   -44.1468 -44.1468 -22.2766 -22.2766 -22.2440 -22.2440 -22.0644 -22.0644
    -6.8538  -6.7234  -6.3638  -6.2421  -5.8970  -5.3125  -5.2569  -5.0659
    -4.6181  -4.5829   0.0096   0.2225   0.6357   1.1152   1.1347   1.2407
     1.4760   1.5950   1.9218   1.9792   2.2700   2.4113   2.4691   2.7580
     2.7985   3.2588   3.3082   3.3766   3.6354   3.6754   3.7794   3.7836
     3.9460   4.5668   5.7831   6.2037   6.2783   6.7250   6.7529   6.8507
     7.2263   7.5784

          k = 0.7622 0.1934 0.1485 ( 36503 PWs)   bands (ev):

   -44.1468 -44.1468 -22.2766 -22.2766 -22.2440 -22.2440 -22.0644 -22.0644
    -6.8351  -6.7419  -6.3602  -6.2882  -5.7972  -5.4218  -5.1968  -5.0852
    -4.6078  -4.5839   0.0738   0.3382   0.5114   0.9519   1.1263   1.2086
     1.4915   1.6578   1.7627   2.0798   2.1358   2.6376   2.6888   2.7967
     2.8689   3.1343   3.2727   3.3839   3.4936   3.6270   3.6671   3.9059
     3.9891   4.6772   5.4553   6.2663   6.5703   6.6253   6.7845   6.9192
     7.0025   7.4934

          k = 0.7622 0.1934-0.2971 ( 36522 PWs)   bands (ev):

   -44.1468 -44.1468 -22.2766 -22.2766 -22.2440 -22.2440 -22.0644 -22.0644
    -6.7886  -6.7886  -6.3402  -6.3402  -5.6057  -5.6057  -5.1341  -5.1341
    -4.5914  -4.5914   0.2565   0.2565   0.6647   0.6647   1.0731   1.0731
     1.5732   1.5732   1.9929   1.9929   2.3684   2.3684   2.7978   2.7978
     2.9957   2.9957   3.3782   3.3782   3.5771   3.5771   3.8127   3.8127
     4.1658   4.1658   6.0125   6.0125   6.3852   6.3852   6.8706   6.8706
     7.3324   7.3324

          k =-1.0162-0.2579 0.0000 ( 36506 PWs)   bands (ev):

   -44.1464 -44.1464 -22.2744 -22.2744 -22.2540 -22.2540 -22.0631 -22.0631
    -6.6925  -6.6725  -5.8236  -5.8125  -5.7354  -5.7244  -5.4772  -5.4766
    -4.5608  -4.5402   0.0631   0.0886   0.4077   0.4276   1.0115   1.0202
     1.4668   1.6729   2.2319   2.3625   2.3646   2.3679   2.7888   2.8191
     2.8210   2.9078   3.2570   3.2624   3.3006   3.4750   3.5906   3.6426
     3.8029   3.9676   6.4031   6.4308   6.4806   6.5643   6.9542   7.0276
     7.0401   7.0435

          k =-1.0162-0.2579 0.1485 ( 36506 PWs)   bands (ev):

   -44.1464 -44.1464 -22.2744 -22.2744 -22.2540 -22.2540 -22.0631 -22.0631
    -6.6889  -6.6747  -5.8364  -5.8275  -5.7260  -5.7197  -5.4666  -5.4665
    -4.5628  -4.5482  -0.0280  -0.0197   0.6293   0.6350   1.0235   1.0479
     1.4638   1.5844   1.9339   2.0122   2.3723   2.3849   2.7407   2.7411
     2.9473   2.9871   3.1571   3.2116   3.5513   3.5590   3.7063   3.7381
     4.0805   4.1125   5.8870   5.8972   6.4088   6.4823   6.9524   6.9882
     7.2490   7.2778

          k =-1.0162-0.2579-0.2971 ( 36528 PWs)   bands (ev):

   -44.1464 -44.1464 -22.2744 -22.2744 -22.2540 -22.2540 -22.0631 -22.0631
    -6.6811  -6.6811  -5.8438  -5.8438  -5.7177  -5.7177  -5.4563  -5.4563
    -4.5606  -4.5606  -0.0849  -0.0849   0.9142   0.9142   0.9854   0.9854
     1.5663   1.5663   1.5963   1.5963   2.3731   2.3731   2.7805   2.7805
     2.9313   2.9313   3.1842   3.1842   3.6061   3.6061   3.7812   3.7812
     4.5340   4.5340   5.3430   5.3430   6.3717   6.3717   6.9920   6.9920
     7.3245   7.3245

          k = 0.5081 0.0000 0.0000 ( 36503 PWs)   bands (ev):

   -44.1477 -44.1477 -22.2815 -22.2814 -22.2202 -22.2202 -22.0674 -22.0673
    -7.2570  -6.8899  -6.6972  -6.6095  -6.2323  -5.2386  -5.1053  -4.7358
    -4.6951  -4.4206   0.5394   0.6723   0.7037   1.1665   1.2712   1.4857
     1.6737   1.8085   2.0386   2.0927   2.1282   2.3146   2.3394   3.2629
     3.3931   3.4179   3.5350   3.5990   3.7726   3.8541   3.9789   4.1935
     4.5760   5.2632   5.4276   5.9351   5.9571   6.5119   6.5135   6.9011
     7.4258   7.5757

          k = 0.5081 0.0000 0.1485 ( 36453 PWs)   bands (ev):

   -44.1477 -44.1477 -22.2814 -22.2814 -22.2202 -22.2202 -22.0674 -22.0673
    -7.2231  -6.9857  -6.6626  -6.6153  -6.1130  -5.5066  -4.9111  -4.7197
    -4.6870  -4.4544   0.5139   0.7168   0.8470   1.0726   1.2078   1.4384
     1.4425   1.6349   2.0269   2.0842   2.3291   2.4946   2.8066   3.2933
     3.3731   3.4457   3.4935   3.5953   3.6502   3.8192   3.8415   4.2519
     4.3917   4.5690   6.0468   6.1306   6.2389   6.5064   6.5712   6.7689
     7.2671   7.4947

          k = 0.5081 0.0000-0.2971 ( 36452 PWs)   bands (ev):

   -44.1477 -44.1477 -22.2814 -22.2814 -22.2202 -22.2202 -22.0673 -22.0673
    -7.1258  -7.1258  -6.6322  -6.6322  -5.8368  -5.8368  -4.7856  -4.7856
    -4.5574  -4.5574   0.6029   0.6029   1.0833   1.0833   1.2414   1.2414
     1.3292   1.3292   2.0582   2.0582   2.7493   2.7493   3.1033   3.1033
     3.3518   3.3518   3.5949   3.5949   3.7157   3.7157   3.8305   3.8305
     4.3255   4.3255   6.2998   6.2998   6.5037   6.5037   6.8007   6.8007
     7.0999   7.0999

          k = 0.7622 0.0645 0.0000 ( 36505 PWs)   bands (ev):

   -44.1468 -44.1468 -22.2766 -22.2766 -22.2440 -22.2440 -22.0644 -22.0644
    -6.8631  -6.7215  -6.3546  -6.2444  -5.8964  -5.3081  -5.2577  -5.0654
    -4.6108  -4.5914   0.0041   0.2338   0.6586   1.1225   1.1479   1.2550
     1.4347   1.5528   1.8981   1.9937   2.2406   2.3762   2.4517   2.7305
     2.7839   3.3142   3.3367   3.3877   3.6105   3.6545   3.8070   3.8274
     3.9639   4.6081   5.7813   6.2174   6.2447   6.6939   6.8076   6.8104
     7.2478   7.5833

          k = 0.7622 0.0645 0.1485 ( 36509 PWs)   bands (ev):

   -44.1468 -44.1468 -22.2766 -22.2766 -22.2440 -22.2440 -22.0644 -22.0644
    -6.8435  -6.7426  -6.3514  -6.2866  -5.7982  -5.4217  -5.1941  -5.0843
    -4.6028  -4.5899   0.0725   0.3441   0.5209   0.9711   1.1259   1.2235
     1.4549   1.6564   1.7885   2.0068   2.0647   2.6539   2.6762   2.7697
     2.8556   3.1355   3.3372   3.4007   3.4610   3.6431   3.6889   3.9238
     4.0328   4.6760   5.4819   6.2487   6.5761   6.6177   6.8010   6.9161
     6.9812   7.5121

          k = 0.7622 0.0645-0.2971 ( 36472 PWs)   bands (ev):

   -44.1468 -44.1468 -22.2766 -22.2766 -22.2440 -22.2440 -22.0644 -22.0644
    -6.7940  -6.7940  -6.3336  -6.3336  -5.6071  -5.6071  -5.1319  -5.1319
    -4.5918  -4.5918   0.2609   0.2609   0.6600   0.6600   1.0982   1.0982
     1.5670   1.5670   1.9441   1.9441   2.3341   2.3341   2.7938   2.7938
     2.9890   2.9890   3.4435   3.4435   3.5737   3.5737   3.8030   3.8030
     4.1893   4.1893   6.0370   6.0370   6.3866   6.3866   6.8365   6.8365
     7.3590   7.3590

          k = 1.0162 0.1290 0.0000 ( 36514 PWs)   bands (ev):

   -44.1464 -44.1464 -22.2744 -22.2744 -22.2540 -22.2540 -22.0631 -22.0631
    -6.6925  -6.6725  -5.8232  -5.8129  -5.7354  -5.7244  -5.4774  -5.4764
    -4.5608  -4.5402   0.0572   0.0946   0.4023   0.4332   1.0062   1.0271
     1.4721   1.6642   2.2344   2.3532   2.3561   2.3720   2.7890   2.8143
     2.8496   2.9064   3.2394   3.2706   3.3075   3.4684   3.6098   3.6283
     3.7859   3.9793   6.3974   6.4374   6.4758   6.5699   6.9666   7.0299
     7.0366   7.0422

          k = 1.0162 0.1290 0.1485 ( 36524 PWs)   bands (ev):

   -44.1464 -44.1464 -22.2744 -22.2744 -22.2540 -22.2540 -22.0631 -22.0631
    -6.6889  -6.6747  -5.8361  -5.8278  -5.7260  -5.7198  -5.4670  -5.4660
    -4.5628  -4.5482  -0.0301  -0.0180   0.6291   0.6359   1.0274   1.0449
     1.4683   1.5809   1.9426   1.9992   2.3665   2.3807   2.6939   2.7960
     2.9625   3.0027   3.1342   3.2109   3.5329   3.5983   3.6970   3.7183
     4.0668   4.1314   5.8767   5.9100   6.4060   6.4849   6.9592   6.9869
     7.2532   7.2738

          k = 1.0162 0.1290-0.2971 ( 36516 PWs)   bands (ev):

   -44.1464 -44.1464 -22.2744 -22.2744 -22.2540 -22.2540 -22.0631 -22.0631
    -6.6811  -6.6811  -5.8438  -5.8438  -5.7177  -5.7177  -5.4563  -5.4563
    -4.5606  -4.5606  -0.0851  -0.0851   0.9132   0.9132   0.9875   0.9875
     1.5646   1.5646   1.5990   1.5990   2.3631   2.3631   2.7644   2.7644
     2.9826   2.9826   3.1571   3.1571   3.6120   3.6120   3.7743   3.7743
     4.5343   4.5343   5.3450   5.3450   6.3713   6.3713   6.9942   6.9942
     7.3246   7.3246

          k =-0.7622-0.3224 0.0000 ( 36511 PWs)   bands (ev):

   -44.1468 -44.1468 -22.2766 -22.2766 -22.2440 -22.2440 -22.0644 -22.0644
    -6.8392  -6.7274  -6.3768  -6.2389  -5.8980  -5.3187  -5.2558  -5.0665
    -4.6241  -4.5753   0.0175   0.2069   0.6050   1.0874   1.1518   1.2220
     1.4993   1.6612   1.9606   1.9709   2.3309   2.4355   2.4944   2.7936
     2.8168   3.1810   3.2835   3.3958   3.5912   3.6567   3.7607   3.7998
     3.9088   4.4995   5.7858   6.1958   6.3229   6.6712   6.7726   6.9176
     7.1893   7.5741

          k =-0.7622-0.3224 0.1485 ( 36492 PWs)   bands (ev):

   -44.1468 -44.1468 -22.2766 -22.2766 -22.2440 -22.2440 -22.0644 -22.0644
    -6.8221  -6.7419  -6.3728  -6.2907  -5.7960  -5.4219  -5.2005  -5.0865
    -4.6119  -4.5785   0.0748   0.3314   0.4969   0.9281   1.1344   1.1879
     1.5391   1.6536   1.7408   2.1853   2.2339   2.6225   2.6983   2.8258
     2.8835   3.1547   3.1873   3.3689   3.4792   3.6231   3.6550   3.8775
     3.9167   4.6775   5.4196   6.2947   6.5474   6.6320   6.7671   6.9499
     7.0276   7.4604

          k =-0.7622-0.3224-0.2971 ( 36508 PWs)   bands (ev):

   -44.1468 -44.1468 -22.2766 -22.2766 -22.2440 -22.2440 -22.0644 -22.0644
    -6.7807  -6.7807  -6.3499  -6.3499  -5.6036  -5.6036  -5.1372  -5.1372
    -4.5909  -4.5909   0.2500   0.2500   0.6713   0.6713   1.0442   1.0442
     1.5799   1.5799   2.0485   2.0485   2.4354   2.4354   2.8061   2.8061
     3.0042   3.0042   3.2870   3.2870   3.5798   3.5798   3.8133   3.8133
     4.1358   4.1358   5.9803   5.9803   6.3819   6.3819   6.9282   6.9282
     7.2872   7.2872

          k =-0.5081-0.2579 0.0000 ( 36480 PWs)   bands (ev):

   -44.1477 -44.1477 -22.2815 -22.2814 -22.2202 -22.2202 -22.0674 -22.0673
    -7.2371  -6.8841  -6.6936  -6.6316  -6.2473  -5.2360  -5.1168  -4.7471
    -4.6799  -4.4221   0.5427   0.6507   0.7111   1.2876   1.2876   1.5579
     1.6670   1.7925   1.9950   2.1406   2.2384   2.3175   2.3305   3.3215
     3.3575   3.3738   3.4689   3.5010   3.7374   3.8706   3.8778   4.0820
     4.5653   5.2614   5.4101   5.8331   6.0121   6.6510   6.6847   6.7812
     7.3327   7.5482

          k =-0.5081-0.2579 0.1485 ( 36485 PWs)   bands (ev):

   -44.1477 -44.1477 -22.2815 -22.2814 -22.2202 -22.2202 -22.0674 -22.0673
    -7.2035  -6.9715  -6.6758  -6.6374  -6.1193  -5.5046  -4.9301  -4.7145
    -4.6848  -4.4515   0.5182   0.7305   0.8302   1.0672   1.3061   1.4235
     1.5469   1.6583   2.0400   2.0722   2.3151   2.5856   2.8299   3.3160
     3.3402   3.3824   3.4792   3.5163   3.6416   3.7136   3.8291   4.1416
     4.3331   4.5706   6.0302   6.0924   6.2182   6.6555   6.6791   6.7051
     7.1787   7.4795

          k =-0.5081-0.2579-0.2971 ( 36478 PWs)   bands (ev):

   -44.1477 -44.1477 -22.2814 -22.2814 -22.2202 -22.2202 -22.0673 -22.0673
    -7.1074  -7.1074  -6.6540  -6.6540  -5.8360  -5.8360  -4.7994  -4.7994
    -4.5484  -4.5484   0.6162   0.6162   1.0824   1.0824   1.1921   1.1921
     1.4712   1.4712   2.0545   2.0545   2.7831   2.7831   3.1709   3.1709
     3.3635   3.3635   3.4268   3.4268   3.6907   3.6907   3.8155   3.8155
     4.2444   4.2444   6.2459   6.2459   6.6135   6.6135   6.7545   6.7545
     7.0997   7.0997

          k =-0.2541-0.1934 0.0000 ( 36410 PWs)   bands (ev):

   -44.1487 -44.1486 -22.2862 -22.2862 -22.1963 -22.1962 -22.0704 -22.0703
    -7.5615  -7.0656  -6.9956  -6.7579  -6.4480  -5.3093  -5.0788  -4.8563
    -4.7835  -3.9997   0.5401   0.9082   0.9121   1.2189   1.3474   1.4466
     1.9409   2.0543   2.2129   2.5005   2.5681   3.1135   3.3734   3.5830
     3.6232   3.6998   3.7678   3.8298   3.9176   4.1735   4.2097   4.2186
     4.4039   4.6545   5.7680   6.0053   6.3197   6.5975   6.6089   6.8472
     6.9971   7.0687

          k =-0.2541-0.1934 0.1485 ( 36427 PWs)   bands (ev):

   -44.1487 -44.1487 -22.2862 -22.2862 -22.1963 -22.1963 -22.0703 -22.0703
    -7.5235  -7.2394  -6.8684  -6.7669  -6.3324  -5.6372  -4.9013  -4.8012
    -4.6962  -4.0925   0.5712   0.9294   0.9986   1.0307   1.1765   1.5907
     1.8528   2.3146   2.4441   2.5126   2.5478   2.9138   3.2821   3.3448
     3.5572   3.6458   3.7338   3.8904   3.9715   4.0844   4.2018   4.2388
     4.6774   4.9859   5.7928   5.8614   6.1852   6.3289   6.5435   6.6964
     7.2104   7.2943

          k =-0.2541-0.1934-0.2971 ( 36422 PWs)   bands (ev):

   -44.1487 -44.1487 -22.2862 -22.2862 -22.1963 -22.1963 -22.0703 -22.0703
    -7.4124  -7.4124  -6.7972  -6.7972  -6.0293  -6.0293  -4.8444  -4.8444
    -4.3476  -4.3476   0.7133   0.7133   1.0471   1.0471   1.2728   1.2728
     2.2991   2.2991   2.5281   2.5281   2.6861   2.6861   3.1424   3.1424
     3.5366   3.5366   3.8061   3.8061   4.0369   4.0369   4.2349   4.2349
     5.1509   5.1509   5.7093   5.7093   6.0902   6.0902   6.5454   6.5454
     7.4122   7.4123

          k = 0.0000-0.1290 0.0000 ( 36417 PWs)   bands (ev):

   -44.1490 -44.1490 -22.2881 -22.2881 -22.1863 -22.1863 -22.0716 -22.0715
    -7.6803  -7.1479  -7.1010  -6.7987  -6.5031  -5.3477  -5.0812  -4.8957
    -4.8289  -3.8593   0.4471   0.7476   0.7697   1.0803   1.5263   1.5739
     2.4127   2.4488   2.6599   2.9746   3.0102   3.0194   3.1722   3.4591
     3.5256   3.6450   3.7924   4.0162   4.1420   4.2474   4.2729   4.6333
     5.0508   5.5051   5.6171   5.6731   5.8630   6.0593   6.3963   6.7906
     6.9438   7.2666

          k = 0.0000-0.1290 0.1485 ( 36419 PWs)   bands (ev):

   -44.1490 -44.1490 -22.2881 -22.2881 -22.1863 -22.1863 -22.0716 -22.0715
    -7.6414  -7.3463  -6.9362  -6.8090  -6.3977  -5.6926  -4.9160  -4.8427
    -4.6957  -3.9759   0.4924   0.7854   0.9256   1.0415   1.0787   2.0057
     2.1194   2.4397   2.6095   2.9838   3.0069   3.1245   3.3164   3.3579
     3.6658   3.7333   3.7808   3.9858   4.0896   4.2718   4.2898   4.6461
     4.8810   5.0375   5.7461   5.9381   6.0295   6.0566   6.5937   6.6988
     6.7754   7.2440

          k = 0.0000-0.1290-0.2971 ( 36464 PWs)   bands (ev):

   -44.1490 -44.1490 -22.2881 -22.2881 -22.1863 -22.1863 -22.0715 -22.0715
    -7.5269  -7.5269  -6.8452  -6.8452  -6.0983  -6.0983  -4.8762  -4.8762
    -4.2851  -4.2851   0.6890   0.6890   0.8919   0.8919   1.4306   1.4306
     2.5142   2.5142   2.6971   2.6971   2.9974   2.9974   3.3675   3.3675
     3.8087   3.8087   3.9279   3.9279   4.2385   4.2385   4.4284   4.4284
     4.7092   4.7092   5.9544   5.9544   6.2525   6.2525   6.3843   6.3843
     7.1319   7.1319

          k = 1.0162 0.0000 0.0000 ( 36499 PWs)   bands (ev):

   -44.1464 -44.1464 -22.2744 -22.2744 -22.2540 -22.2540 -22.0631 -22.0631
    -6.6925  -6.6725  -5.8228  -5.8133  -5.7354  -5.7244  -5.4775  -5.4763
    -4.5608  -4.5402   0.0527   0.0991   0.3984   0.4373   1.0033   1.0314
     1.4779   1.6549   2.2370   2.3398   2.3534   2.3756   2.7897   2.8090
     2.8813   2.9006   3.2317   3.2867   3.2973   3.4577   3.6165   3.6366
     3.7631   3.9901   6.3932   6.4426   6.4714   6.5751   6.9832   7.0257
     7.0322   7.0444

          k = 1.0162 0.0000 0.1485 ( 36485 PWs)   bands (ev):

   -44.1464 -44.1464 -22.2744 -22.2744 -22.2540 -22.2540 -22.0631 -22.0631
    -6.6889  -6.6747  -5.8359  -5.8280  -5.7260  -5.7198  -5.4673  -5.4658
    -4.5628  -4.5482  -0.0318  -0.0167   0.6290   0.6366   1.0354   1.0377
     1.4733   1.5769   1.9596   1.9778   2.3627   2.3749   2.6788   2.8146
     2.9780   3.0466   3.0868   3.2104   3.5287   3.6352   3.6829   3.6917
     4.0590   4.1443   5.8716   5.9176   6.4034   6.4872   6.9677   6.9839
     7.2616   7.2656

          k = 1.0162 0.0000-0.2971 ( 36514 PWs)   bands (ev):

   -44.1464 -44.1464 -22.2744 -22.2744 -22.2540 -22.2540 -22.0631 -22.0631
    -6.6811  -6.6811  -5.8438  -5.8438  -5.7177  -5.7177  -5.4563  -5.4563
    -4.5606  -4.5606  -0.0852  -0.0852   0.9122   0.9122   0.9896   0.9896
     1.5632   1.5632   1.6014   1.6014   2.3534   2.3534   2.7531   2.7531
     3.0573   3.0573   3.1015   3.1015   3.6182   3.6182   3.7670   3.7670
     4.5347   4.5347   5.3470   5.3470   6.3709   6.3709   6.9964   6.9964
     7.3247   7.3247

          k = 1.2703 0.0645 0.0000 ( 36468 PWs)   bands (ev):

   -44.1468 -44.1468 -22.2766 -22.2766 -22.2440 -22.2440 -22.0644 -22.0644
    -6.8273  -6.7317  -6.3860  -6.2366  -5.8987  -5.3231  -5.2550  -5.0669
    -4.6272  -4.5710   0.0232   0.1961   0.5842   1.0757   1.1637   1.2086
     1.5036   1.7082   1.9487   2.0177   2.3896   2.4313   2.5131   2.8165
     2.8277   3.1133   3.2971   3.4579   3.5396   3.5552   3.7527   3.8671
     3.8730   4.4418   5.7879   6.1952   6.3559   6.6129   6.8094   6.9737
     7.1538   7.5799

          k = 1.2703 0.0645 0.1485 ( 36490 PWs)   bands (ev):

   -44.1468 -44.1468 -22.2766 -22.2766 -22.2440 -22.2440 -22.0644 -22.0644
    -6.8115  -6.7429  -6.3818  -6.2926  -5.7950  -5.4220  -5.2031  -5.0874
    -4.6139  -4.5755   0.0750   0.3278   0.4859   0.9136   1.1461   1.1707
     1.5780   1.6403   1.7315   2.2629   2.3080   2.6121   2.7024   2.8400
     2.8942   3.1173   3.1946   3.3720   3.4273   3.5757   3.7327   3.8288
     3.8596   4.6768   5.3959   6.3195   6.5171   6.6359   6.7629   6.9861
     7.0426   7.4319

          k = 1.2703 0.0645-0.2971 ( 36480 PWs)   bands (ev):

   -44.1468 -44.1468 -22.2766 -22.2766 -22.2440 -22.2440 -22.0644 -22.0644
    -6.7750  -6.7750  -6.3570  -6.3570  -5.6021  -5.6021  -5.1394  -5.1394
    -4.5905  -4.5905   0.2453   0.2453   0.6759   0.6759   1.0272   1.0272
     1.5843   1.5843   2.0773   2.0773   2.4980   2.4980   2.8229   2.8229
     3.0049   3.0049   3.2134   3.2134   3.5837   3.5837   3.8044   3.8044
     4.1181   4.1181   5.9590   5.9590   6.3789   6.3789   6.9795   6.9795
     7.2459   7.2459

          k =-0.5081-0.3869 0.0000 ( 36463 PWs)   bands (ev):

   -44.1477 -44.1477 -22.2815 -22.2814 -22.2202 -22.2202 -22.0674 -22.0673
    -7.2217  -6.8816  -6.6911  -6.6465  -6.2586  -5.2342  -5.1251  -4.7512
    -4.6729  -4.4231   0.5498   0.6365   0.7040   1.2979   1.4218   1.5972
     1.6568   1.7857   1.9777   2.1821   2.2694   2.3200   2.3326   3.2357
     3.3553   3.3898   3.4011   3.5187   3.6998   3.7891   3.8468   4.0726
     4.5538   5.2526   5.4009   5.7468   6.0731   6.6960   6.7640   6.8022
     7.2462   7.5468

          k =-0.5081-0.3869 0.1485 ( 36477 PWs)   bands (ev):

   -44.1477 -44.1477 -22.2815 -22.2814 -22.2202 -22.2202 -22.0674 -22.0673
    -7.1883  -6.9611  -6.6864  -6.6533  -6.1238  -5.5031  -4.9425  -4.7131
    -4.6822  -4.4496   0.5224   0.7349   0.8173   1.0640   1.3966   1.4311
     1.5942   1.6886   2.0456   2.0760   2.3045   2.6309   2.8488   3.2023
     3.3515   3.3828   3.4220   3.5147   3.6490   3.6947   3.7730   4.1081
     4.2697   4.5709   5.9755   6.1035   6.2122   6.5922   6.7764   6.8246
     7.0997   7.4819

          k =-0.5081-0.3869-0.2971 ( 36492 PWs)   bands (ev):

   -44.1477 -44.1477 -22.2814 -22.2814 -22.2202 -22.2202 -22.0673 -22.0673
    -7.0932  -7.0932  -6.6706  -6.6706  -5.8354  -5.8354  -4.8087  -4.8087
    -4.5425  -4.5425   0.6248   0.6248   1.0807   1.0807   1.1749   1.1749
     1.5730   1.5730   2.0448   2.0448   2.8124   2.8124   3.1902   3.1902
     3.3065   3.3065   3.3915   3.3915   3.6789   3.6789   3.8006   3.8006
     4.1864   4.1864   6.2087   6.2087   6.6451   6.6451   6.7585   6.7585
     7.1132   7.1132

          k =-0.2541-0.3224 0.0000 ( 36485 PWs)   bands (ev):

   -44.1487 -44.1487 -22.2862 -22.2862 -22.1963 -22.1962 -22.0704 -22.0703
    -7.5465  -7.0539  -6.9931  -6.7743  -6.4710  -5.3084  -5.0896  -4.8616
    -4.7744  -4.0012   0.5664   0.9218   1.0378   1.2681   1.4196   1.4435
     1.9766   2.0866   2.2142   2.4212   2.5181   3.2295   3.2604   3.3997
     3.5713   3.6530   3.7358   3.8586   3.8950   4.0893   4.1732   4.1753
     4.3942   4.6013   5.8488   6.0229   6.3648   6.5609   6.6948   6.8684
     6.9335   7.0113

          k =-0.2541-0.3224 0.1485 ( 36445 PWs)   bands (ev):

   -44.1487 -44.1487 -22.2862 -22.2862 -22.1963 -22.1963 -22.0703 -22.0703
    -7.5087  -7.2259  -6.8766  -6.7838  -6.3454  -5.6367  -4.9226  -4.7972
    -4.6876  -4.0923   0.5915   0.9636   1.0335   1.1424   1.2535   1.6154
     1.8624   2.3123   2.4335   2.4626   2.5391   2.8938   3.3161   3.3546
     3.3876   3.5267   3.7260   3.8829   3.9137   4.0687   4.1181   4.1763
     4.6893   4.9530   5.7759   5.8890   6.1771   6.3295   6.6445   6.7245
     7.1592   7.2823

          k =-0.2541-0.3224-0.2971 ( 36442 PWs)   bands (ev):

   -44.1487 -44.1487 -22.2862 -22.2862 -22.1963 -22.1963 -22.0703 -22.0703
    -7.3979  -7.3979  -6.8135  -6.8135  -6.0320  -6.0320  -4.8526  -4.8526
    -4.3436  -4.3436   0.7253   0.7253   1.1759   1.1759   1.2856   1.2856
     2.2964   2.2964   2.4801   2.4801   2.6872   2.6872   3.1927   3.1927
     3.3700   3.3700   3.7929   3.7929   4.0176   4.0176   4.1596   4.1596
     5.1546   5.1546   5.6655   5.6655   6.0650   6.0650   6.6524   6.6524
     7.3792   7.3792

          k = 0.0000-0.2579 0.0000 ( 36445 PWs)   bands (ev):

   -44.1490 -44.1490 -22.2881 -22.2881 -22.1863 -22.1863 -22.0716 -22.0715
    -7.6671  -7.1344  -7.0987  -6.8146  -6.5270  -5.3476  -5.0912  -4.9033
    -4.8180  -3.8609   0.4906   0.7831   0.8621   1.1238   1.5822   1.5988
     2.4200   2.4511   2.6777   2.9708   3.0016   3.0492   3.2731   3.2853
     3.3110   3.6186   3.7002   3.9787   4.1088   4.1419   4.1465   4.6352
     5.0302   5.4430   5.6843   5.6907   5.8995   6.1253   6.4923   6.7146
     6.9450   7.2286

          k = 0.0000-0.2579 0.1485 ( 36452 PWs)   bands (ev):

   -44.1490 -44.1490 -22.2881 -22.2881 -22.1863 -22.1863 -22.0716 -22.0715
    -7.6282  -7.3340  -6.9408  -6.8248  -6.4128  -5.6929  -4.9376  -4.8374
    -4.6878  -3.9759   0.5272   0.8907   0.9691   1.0876   1.1081   2.0269
     2.1549   2.4478   2.6242   2.9796   2.9991   3.1271   3.2168   3.2510
     3.6330   3.6657   3.7107   3.9232   4.0850   4.1485   4.1762   4.6478
     4.8713   5.0205   5.7750   5.9474   6.0616   6.0849   6.5580   6.7609
     6.7775   7.2096

          k = 0.0000-0.2579-0.2971 ( 36454 PWs)   bands (ev):

   -44.1490 -44.1490 -22.2881 -22.2881 -22.1863 -22.1863 -22.0715 -22.0715
    -7.5139  -7.5139  -6.8591  -6.8591  -6.1024  -6.1024  -4.8835  -4.8835
    -4.2819  -4.2819   0.7217   0.7217   0.9807   0.9807   1.4529   1.4529
     2.5247   2.5247   2.7166   2.7166   2.9915   2.9915   3.2274   3.2274
     3.7711   3.7711   3.9135   3.9135   4.1002   4.1002   4.4199   4.4199
     4.7083   4.7083   5.9345   5.9345   6.2936   6.2936   6.3887   6.3887
     7.1200   7.1200

          k = 1.5243 0.0000 0.0000 ( 36439 PWs)   bands (ev):

   -44.1477 -44.1477 -22.2815 -22.2814 -22.2202 -22.2202 -22.0674 -22.0673
    -7.2149  -6.8810  -6.6900  -6.6523  -6.2634  -5.2335  -5.1286  -4.7524
    -4.6705  -4.4235   0.5541   0.6309   0.6981   1.3019   1.5494   1.5655
     1.6304   1.7797   1.9879   2.2029   2.2547   2.3295   2.3381   3.1855
     3.3348   3.3668   3.4144   3.6000   3.6764   3.6888   3.8401   4.0878
     4.5485   5.2458   5.3976   5.7121   6.1009   6.6597   6.8244   6.8471
     7.1993   7.5761

          k = 1.5243 0.0000 0.1485 ( 36476 PWs)   bands (ev):

   -44.1477 -44.1477 -22.2815 -22.2814 -22.2202 -22.2202 -22.0674 -22.0673
    -7.1816  -6.9568  -6.6910  -6.6602  -6.1256  -5.5025  -4.9474  -4.7128
    -4.6808  -4.4487   0.5244   0.7359   0.8114   1.0628   1.4173   1.4699
     1.5887   1.7141   2.0562   2.0747   2.2967   2.6419   2.8604   3.1523
     3.3093   3.3959   3.4066   3.5893   3.6219   3.7024   3.7044   4.1239
     4.2265   4.5711   5.9487   6.1123   6.2108   6.5632   6.8206   6.8889
     7.0509   7.4932

          k = 1.5243 0.0000-0.2971 ( 36508 PWs)   bands (ev):

   -44.1477 -44.1477 -22.2814 -22.2814 -22.2202 -22.2202 -22.0673 -22.0673
    -7.0870  -7.0870  -6.6778  -6.6778  -5.8351  -5.8351  -4.8124  -4.8124
    -4.5401  -4.5401   0.6282   0.6282   1.0797   1.0797   1.1690   1.1690
     1.6215   1.6215   2.0368   2.0368   2.8266   2.8266   3.1539   3.1539
     3.3119   3.3119   3.3941   3.3941   3.6673   3.6673   3.7950   3.7950
     4.1628   4.1628   6.1937   6.1937   6.6399   6.6399   6.7745   6.7745
     7.1241   7.1241

          k =-0.2541-0.4514 0.0000 ( 36444 PWs)   bands (ev):

   -44.1487 -44.1487 -22.2862 -22.2862 -22.1963 -22.1962 -22.0704 -22.0703
    -7.5354  -7.0462  -6.9912  -6.7847  -6.4885  -5.3078  -5.0975  -4.8631
    -4.7699  -4.0023   0.5751   0.9323   1.1514   1.3010   1.4393   1.5081
     2.0152   2.1121   2.2072   2.3311   2.4421   3.1732   3.2700   3.3328
     3.5793   3.6126   3.7467   3.7820   3.8955   4.0484   4.1358   4.1486
     4.4366   4.5376   5.9156   6.0314   6.3863   6.5290   6.7511   6.8598
     6.8842   6.9996

          k =-0.2541-0.4514 0.1485 ( 36461 PWs)   bands (ev):

   -44.1487 -44.1487 -22.2862 -22.2862 -22.1963 -22.1963 -22.0703 -22.0703
    -7.4976  -7.2159  -6.8836  -6.7953  -6.3546  -5.6363  -4.9359  -4.7957
    -4.6819  -4.0921   0.5971   0.9788   1.0447   1.2772   1.3277   1.6369
     1.8798   2.2961   2.3438   2.4434   2.5341   2.8812   3.2546   3.2695
     3.3878   3.5383   3.7564   3.8438   3.8731   3.9883   4.1118   4.1408
     4.7146   4.9195   5.7671   5.9110   6.1855   6.2901   6.7125   6.7439
     7.1318   7.2723

          k =-0.2541-0.4514-0.2971 ( 36490 PWs)   bands (ev):

   -44.1487 -44.1487 -22.2862 -22.2862 -22.1963 -22.1963 -22.0703 -22.0703
    -7.3870  -7.3870  -6.8257  -6.8257  -6.0337  -6.0337  -4.8584  -4.8584
    -4.3408  -4.3408   0.7276   0.7276   1.2836   1.2836   1.3114   1.3114
     2.2829   2.2829   2.4224   2.4224   2.6878   2.6878   3.2131   3.2131
     3.2725   3.2725   3.7943   3.7943   3.9943   3.9943   4.1184   4.1184
     5.1590   5.1590   5.6397   5.6397   6.0410   6.0410   6.7167   6.7167
     7.3585   7.3585

          k = 0.0000-0.3869 0.0000 ( 36477 PWs)   bands (ev):

   -44.1490 -44.1490 -22.2881 -22.2881 -22.1863 -22.1863 -22.0716 -22.0715
    -7.6532  -7.1212  -7.0964  -6.8289  -6.5529  -5.3474  -5.1020  -4.9061
    -4.8113  -3.8625   0.5141   0.7972   1.0193   1.1880   1.6221   1.6481
     2.4276   2.4506   2.6969   2.9671   2.9923   3.0182   3.0509   3.0971
     3.4147   3.5916   3.7127   3.9268   3.9621   4.0107   4.1417   4.6373
     5.0100   5.4084   5.7084   5.7607   5.9391   6.1641   6.5594   6.6136
     6.9460   7.2018

          k = 0.0000-0.3869 0.1485 ( 36452 PWs)   bands (ev):

   -44.1490 -44.1490 -22.2881 -22.2881 -22.1863 -22.1863 -22.0716 -22.0715
    -7.6144  -7.3212  -6.9470  -6.8398  -6.4282  -5.6930  -4.9559  -4.8347
    -4.6807  -3.9760   0.5414   0.9970   1.0072   1.1483   1.2030   2.0513
     2.1867   2.4562   2.6397   2.9389   2.9754   2.9831   2.9907   3.3051
     3.6059   3.6694   3.6878   3.9090   4.0116   4.0578   4.0801   4.6497
     4.8618   5.0132   5.8137   5.9572   6.0858   6.0882   6.5117   6.7797
     6.7992   7.1773

          k = 0.0000-0.3869-0.2971 ( 36454 PWs)   bands (ev):

   -44.1490 -44.1490 -22.2881 -22.2881 -22.1863 -22.1863 -22.0715 -22.0715
    -7.5003  -7.5003  -6.8739  -6.8739  -6.1063  -6.1063  -4.8908  -4.8908
    -4.2787  -4.2787   0.7278   0.7278   1.1251   1.1251   1.4770   1.4770
     2.5356   2.5356   2.6964   2.6964   2.9853   2.9853   3.0495   3.0495
     3.7878   3.7878   3.8989   3.8989   3.9873   3.9873   4.4057   4.4057
     4.7077   4.7077   5.9092   5.9092   6.3205   6.3205   6.3935   6.3935
     7.0944   7.0944

          k =-2.0325 0.0000 0.0000 ( 36452 PWs)   bands (ev):

   -44.1490 -44.1490 -22.2881 -22.2881 -22.1863 -22.1863 -22.0716 -22.0715
    -7.6472  -7.1159  -7.0954  -6.8341  -6.5644  -5.3473  -5.1066  -4.9064
    -4.8093  -3.8631   0.5184   0.8032   1.1312   1.1851   1.6312   1.6894
     2.4308   2.4488   2.7053   2.8735   2.9489   2.9655   2.9881   3.1238
     3.5156   3.5802   3.7332   3.8088   3.9496   3.9528   4.1416   4.6383
     5.0018   5.3984   5.7158   5.7959   5.9583   6.1758   6.5629   6.5808
     6.9464   7.1929

          k =-2.0325 0.0000 0.1485 ( 36456 PWs)   bands (ev):

   -44.1490 -44.1490 -22.2881 -22.2881 -22.1863 -22.1863 -22.0716 -22.0715
    -7.6084  -7.3158  -6.9502  -6.8458  -6.4346  -5.6931  -4.9630  -4.8339
    -4.6779  -3.9760   0.5425   1.0170   1.0342   1.1891   1.2691   2.0621
     2.2000   2.4597   2.6463   2.8198   2.8723   2.9738   2.9869   3.3596
     3.5853   3.6782   3.7039   3.8857   3.9542   4.0111   4.0780   4.6506
     4.8578   5.0120   5.8342   5.9614   6.0773   6.0987   6.4902   6.7805
     6.8092   7.1654

          k =-2.0325 0.0000-0.2971 ( 36460 PWs)   bands (ev):

   -44.1490 -44.1490 -22.2881 -22.2881 -22.1863 -22.1863 -22.0715 -22.0715
    -7.4944  -7.4944  -6.8803  -6.8803  -6.1079  -6.1079  -4.8938  -4.8938
    -4.2773  -4.2773   0.7266   0.7266   1.2020   1.2020   1.4881   1.4881
     2.5402   2.5402   2.6490   2.6490   2.9827   2.9827   2.9974   2.9974
     3.8008   3.8008   3.8928   3.8928   3.9432   3.9432   4.4003   4.4003
     4.7075   4.7075   5.8970   5.8970   6.3288   6.3288   6.3956   6.3956
     7.0820   7.0820

     the Fermi energy is     5.3475 ev

!    total energy              =   -4240.94470482 Ry

     total all-electron energy =   -150287.638399 Ry
     estimated scf accuracy    <          3.0E-11 Ry
     smearing contrib. (-TS)   =      -0.00000856 Ry
     internal energy E=F+TS    =   -4240.94469626 Ry

     The total energy is F=E-TS. E is the sum of the following terms:
     one-electron contribution =    -165.50913588 Ry
     hartree contribution      =     116.22990213 Ry
     xc contribution           =    -201.43697997 Ry
     ewald contribution        =    -222.71709165 Ry
     one-center paw contrib.   =   -3767.51139089 Ry

     convergence has been achieved in  16 iterations

     Forces acting on atoms (cartesian axes, Ry/au):

     atom    1 type  1   force =     0.00000000   -0.01440975    0.00000000
     atom    2 type  1   force =     0.00000000    0.01440975    0.00000000
     atom    3 type  2   force =     0.00000000    0.00051176    0.00000000
     atom    4 type  2   force =     0.00000000   -0.00051176    0.00000000
     atom    5 type  2   force =     0.00000000    0.00305012    0.00044948
     atom    6 type  2   force =     0.00000000   -0.00305012   -0.00044948
     atom    7 type  2   force =     0.00000000    0.00305012   -0.00044948
     atom    8 type  2   force =     0.00000000   -0.00305012    0.00044948
     atom    9 type  2   force =     0.00000000    0.01655989    0.01527094
     atom   10 type  2   force =     0.00000000   -0.01655989   -0.01527094
     atom   11 type  2   force =     0.00000000    0.01655989   -0.01527094
     atom   12 type  2   force =     0.00000000   -0.01655989    0.01527094

     Total force =     0.049835     Total SCF correction =     0.000009


     Computing stress (Cartesian axis) and pressure

          total   stress  (Ry/bohr**3)                   (kbar)     P=       -3.80
  -0.00001957   0.00000000   0.00000000           -2.88        0.00        0.00
   0.00000000  -0.00002478   0.00000000            0.00       -3.65        0.00
   0.00000000   0.00000000  -0.00003307            0.00        0.00       -4.86

 
     init_run     :     18.32s CPU     18.79s WALL (       1 calls)
     electrons    :    874.43s CPU    883.77s WALL (       1 calls)
     forces       :      6.55s CPU      6.76s WALL (       1 calls)
     stress       :     41.45s CPU     42.07s WALL (       1 calls)

     Called by init_run:
     wfcinit      :     13.92s CPU     14.08s WALL (       1 calls)
     potinit      :      1.39s CPU      1.44s WALL (       1 calls)
     hinit0       :      1.67s CPU      1.72s WALL (       1 calls)

     Called by electrons:
     c_bands      :    734.37s CPU    737.06s WALL (      17 calls)
     sum_band     :    117.38s CPU    120.99s WALL (      17 calls)
     v_of_rho     :      4.91s CPU      5.14s WALL (      17 calls)
     newd         :     12.65s CPU     15.61s WALL (      17 calls)
     PAW_pot      :      5.32s CPU      5.32s WALL (      17 calls)
     mix_rho      :      0.71s CPU      0.73s WALL (      17 calls)

     Called by c_bands:
     init_us_2    :     10.35s CPU     10.39s WALL (    2331 calls)
     cegterg      :    665.02s CPU    667.29s WALL (    1071 calls)

     Called by *egterg:
     cdiaghg      :     26.41s CPU     26.46s WALL (    7822 calls)
     h_psi        :    507.04s CPU    509.20s WALL (    7948 calls)
     s_psi        :     42.06s CPU     42.12s WALL (    7948 calls)
     g_psi        :      1.86s CPU      1.87s WALL (    6814 calls)

     Called by h_psi:
     h_psi:calbec :     36.64s CPU     36.68s WALL (    7948 calls)
     vloc_psi     :    425.75s CPU    427.72s WALL (    7948 calls)
     add_vuspsi   :     41.86s CPU     41.92s WALL (    7948 calls)

     General routines
     calbec       :     48.87s CPU     48.93s WALL (    9334 calls)
     fft          :      3.02s CPU      3.13s WALL (     245 calls)
     ffts         :      0.07s CPU      0.07s WALL (      34 calls)
     fftw         :    396.84s CPU    398.65s WALL (  402734 calls)
     interpolate  :      0.27s CPU      0.27s WALL (      17 calls)
 
     Parallel routines
 
     PWSCF        :  15m41.00s CPU  15m51.70s WALL

 
   This run was terminated on:  15:33:58  19Nov2021            

=------------------------------------------------------------------------------=
   JOB DONE.
=------------------------------------------------------------------------------=
