
     Program PWSCF v.6.8 starts on 19Nov2021 at 15:17:17 

     This program is part of the open-source Quantum ESPRESSO suite
     for quantum simulation of materials; please cite
         "P. Giannozzi et al., J. Phys.:Condens. Matter 21 395502 (2009);
         "P. Giannozzi et al., J. Phys.:Condens. Matter 29 465901 (2017);
         "P. Giannozzi et al., J. Chem. Phys. 152 154105 (2020);
          URL http://www.quantum-espresso.org", 
     in publications or presentations arising from this work. More details at
     http://www.quantum-espresso.org/quote

     Parallel version (MPI), running on    10 processors

     MPI processes distributed on     1 nodes
     R & G space division:  proc/nbgrp/npool/nimage =      10
     72889 MiB available memory on the printing compute node when the environment starts
 
     Waiting for input...
     Reading input from standard input

     Current dimensions of program PWSCF are:
     Max number of different atomic species (ntypx) = 10
     Max number of k-points (npk) =  40000
     Max angular momentum in pseudopotentials (lmaxx) =  4
     file Zr.pbe-spn-kjpaw_psl.1.0.0.UPF: wavefunction(s)  4S 4P renormalized
     file Te.pbe-n-kjpaw_psl.1.0.0.UPF: wavefunction(s)  5S 5P renormalized
     Message from routine setup:
     using ibrav=0 with symmetry is DISCOURAGED, use correct ibrav instead

     Subspace diagonalization in iterative solution of the eigenvalue problem:
     a serial algorithm will be used

 
     Parallelization info
     --------------------
     sticks:   dense  smooth     PW     G-vecs:    dense   smooth      PW
     Min         734     293     87               115340    29174    4753
     Max         735     295     88               115345    29176    4760
     Sum        7345    2937    873              1153415   291749   47557
 
     Using Slab Decomposition
 


     bravais-lattice index     =            0
     lattice parameter (alat)  =      15.5510  a.u.
     unit-cell volume          =    3018.5011 (a.u.)^3
     number of atoms/cell      =           12
     number of atomic types    =            2
     number of electrons       =        84.00
     number of Kohn-Sham states=           50
     kinetic-energy cutoff     =      80.0000  Ry
     charge density cutoff     =     800.0000  Ry
     scf convergence threshold =      1.0E-10
     mixing beta               =       0.7000
     number of iterations used =            8  plain     mixing
     Exchange-correlation= SLA  PW   PBX  PBC
                           (   1   4   3   4   0   0   0)

     celldm(1)=  15.551040  celldm(2)=   0.000000  celldm(3)=   0.000000
     celldm(4)=   0.000000  celldm(5)=   0.000000  celldm(6)=   0.000000

     crystal axes: (cart. coord. in units of alat)
               a(1) = (   0.246007  -0.969268   0.000000 )  
               a(2) = (   0.246007   0.969268   0.000000 )  
               a(3) = (   0.000000   0.000000   1.683031 )  

     reciprocal axes: (cart. coord. in units 2 pi/alat)
               b(1) = (  2.032465 -0.515853  0.000000 )  
               b(2) = (  2.032465  0.515853  0.000000 )  
               b(3) = (  0.000000  0.000000  0.594166 )  


     PseudoPot. # 1 for Zr read from file:
     pseudo/Zr.pbe-spn-kjpaw_psl.1.0.0.UPF
     MD5 check sum: 02112c41713a0468aff2bb39ef194e36
     Pseudo is Projector augmented-wave + core cor, Zval = 12.0
     Generated using &quot;atomic&quot; code by A. Dal Corso  v.6.2.2
     Shape of augmentation charge: PSQ
     Using radial grid of 1225 points,  6 beta functions with: 
                l(1) =   0
                l(2) =   0
                l(3) =   1
                l(4) =   1
                l(5) =   2
                l(6) =   2
     Q(r) pseudized with 0 coefficients 


     PseudoPot. # 2 for Te read from file:
     pseudo/Te.pbe-n-kjpaw_psl.1.0.0.UPF
     MD5 check sum: 66247bff2bd9dbf220fbb0bf5ab56e9d
     Pseudo is Projector augmented-wave + core cor, Zval =  6.0
     Generated using &quot;atomic&quot; code by A. Dal Corso  v.6.3
     Shape of augmentation charge: PSQ
     Using radial grid of 1245 points,  6 beta functions with: 
                l(1) =   0
                l(2) =   0
                l(3) =   1
                l(4) =   1
                l(5) =   2
                l(6) =   2
     Q(r) pseudized with 0 coefficients 


     atomic species   valence    mass     pseudopotential
        Zr            12.00    91.22000     Zr( 1.00)
        Te             6.00   127.60000     Te( 1.00)

      8 Sym. Ops., with inversion, found ( 4 have fractional translation)



   Cartesian axes

     site n.     atom                  positions (alat units)
         1           Zr  tau(   1) = (   0.0000000   0.6074179   0.4207578  )
         2           Zr  tau(   2) = (   0.2460067   0.3618502   1.2622733  )
         3           Te  tau(   3) = (   0.2460067   0.3342848   0.4207578  )
         4           Te  tau(   4) = (   0.0000000   0.6349833   1.2622733  )
         5           Te  tau(   5) = (   0.2460067   0.8090016   0.2515008  )
         6           Te  tau(   6) = (   0.0000000   0.1602665   1.4315302  )
         7           Te  tau(   7) = (   0.2460067   0.8090016   0.5900147  )
         8           Te  tau(   8) = (   0.0000000   0.1602665   1.0930164  )
         9           Te  tau(   9) = (   0.0000000   0.4117202   0.7278565  )
        10           Te  tau(  10) = (   0.2460067   0.5575479   0.9551746  )
        11           Te  tau(  11) = (   0.0000000   0.4117202   0.1136591  )
        12           Te  tau(  12) = (   0.2460067   0.5575479   1.5693720  )

     number of k points=    63  Methfessel-Paxton smearing, width (Ry)=  0.0030
                       cart. coord. in units 2pi/alat
        k(    1) = (   0.0000000   0.0000000   0.0000000), wk =   0.0078125
        k(    2) = (   0.0000000   0.0000000   0.1485415), wk =   0.0156250
        k(    3) = (   0.0000000   0.0000000  -0.2970830), wk =   0.0078125
        k(    4) = (   0.2540581   0.0644816   0.0000000), wk =   0.0312500
        k(    5) = (   0.2540581   0.0644816   0.1485415), wk =   0.0625000
        k(    6) = (   0.2540581   0.0644816  -0.2970830), wk =   0.0312500
        k(    7) = (   0.5081162   0.1289633   0.0000000), wk =   0.0312500
        k(    8) = (   0.5081162   0.1289633   0.1485415), wk =   0.0625000
        k(    9) = (   0.5081162   0.1289633  -0.2970830), wk =   0.0312500
        k(   10) = (   0.7621743   0.1934449   0.0000000), wk =   0.0312500
        k(   11) = (   0.7621743   0.1934449   0.1485415), wk =   0.0625000
        k(   12) = (   0.7621743   0.1934449  -0.2970830), wk =   0.0312500
        k(   13) = (  -1.0162324  -0.2579266   0.0000000), wk =   0.0156250
        k(   14) = (  -1.0162324  -0.2579266   0.1485415), wk =   0.0312500
        k(   15) = (  -1.0162324  -0.2579266  -0.2970830), wk =   0.0156250
        k(   16) = (   0.5081162   0.0000000   0.0000000), wk =   0.0156250
        k(   17) = (   0.5081162   0.0000000   0.1485415), wk =   0.0312500
        k(   18) = (   0.5081162   0.0000000  -0.2970830), wk =   0.0156250
        k(   19) = (   0.7621743   0.0644816   0.0000000), wk =   0.0312500
        k(   20) = (   0.7621743   0.0644816   0.1485415), wk =   0.0625000
        k(   21) = (   0.7621743   0.0644816  -0.2970830), wk =   0.0312500
        k(   22) = (   1.0162324   0.1289633   0.0000000), wk =   0.0312500
        k(   23) = (   1.0162324   0.1289633   0.1485415), wk =   0.0625000
        k(   24) = (   1.0162324   0.1289633  -0.2970830), wk =   0.0312500
        k(   25) = (  -0.7621743  -0.3224082   0.0000000), wk =   0.0312500
        k(   26) = (  -0.7621743  -0.3224082   0.1485415), wk =   0.0625000
        k(   27) = (  -0.7621743  -0.3224082  -0.2970830), wk =   0.0312500
        k(   28) = (  -0.5081162  -0.2579266   0.0000000), wk =   0.0312500
        k(   29) = (  -0.5081162  -0.2579266   0.1485415), wk =   0.0625000
        k(   30) = (  -0.5081162  -0.2579266  -0.2970830), wk =   0.0312500
        k(   31) = (  -0.2540581  -0.1934449   0.0000000), wk =   0.0312500
        k(   32) = (  -0.2540581  -0.1934449   0.1485415), wk =   0.0625000
        k(   33) = (  -0.2540581  -0.1934449  -0.2970830), wk =   0.0312500
        k(   34) = (   0.0000000  -0.1289633   0.0000000), wk =   0.0156250
        k(   35) = (   0.0000000  -0.1289633   0.1485415), wk =   0.0312500
        k(   36) = (   0.0000000  -0.1289633  -0.2970830), wk =   0.0156250
        k(   37) = (   1.0162324   0.0000000   0.0000000), wk =   0.0156250
        k(   38) = (   1.0162324   0.0000000   0.1485415), wk =   0.0312500
        k(   39) = (   1.0162324   0.0000000  -0.2970830), wk =   0.0156250
        k(   40) = (   1.2702905   0.0644816   0.0000000), wk =   0.0312500
        k(   41) = (   1.2702905   0.0644816   0.1485415), wk =   0.0625000
        k(   42) = (   1.2702905   0.0644816  -0.2970830), wk =   0.0312500
        k(   43) = (  -0.5081162  -0.3868899   0.0000000), wk =   0.0312500
        k(   44) = (  -0.5081162  -0.3868899   0.1485415), wk =   0.0625000
        k(   45) = (  -0.5081162  -0.3868899  -0.2970830), wk =   0.0312500
        k(   46) = (  -0.2540581  -0.3224082   0.0000000), wk =   0.0312500
        k(   47) = (  -0.2540581  -0.3224082   0.1485415), wk =   0.0625000
        k(   48) = (  -0.2540581  -0.3224082  -0.2970830), wk =   0.0312500
        k(   49) = (   0.0000000  -0.2579266   0.0000000), wk =   0.0156250
        k(   50) = (   0.0000000  -0.2579266   0.1485415), wk =   0.0312500
        k(   51) = (   0.0000000  -0.2579266  -0.2970830), wk =   0.0156250
        k(   52) = (   1.5243485   0.0000000   0.0000000), wk =   0.0156250
        k(   53) = (   1.5243485   0.0000000   0.1485415), wk =   0.0312500
        k(   54) = (   1.5243485   0.0000000  -0.2970830), wk =   0.0156250
        k(   55) = (  -0.2540581  -0.4513715   0.0000000), wk =   0.0312500
        k(   56) = (  -0.2540581  -0.4513715   0.1485415), wk =   0.0625000
        k(   57) = (  -0.2540581  -0.4513715  -0.2970830), wk =   0.0312500
        k(   58) = (   0.0000000  -0.3868899   0.0000000), wk =   0.0156250
        k(   59) = (   0.0000000  -0.3868899   0.1485415), wk =   0.0312500
        k(   60) = (   0.0000000  -0.3868899  -0.2970830), wk =   0.0156250
        k(   61) = (  -2.0324647   0.0000000   0.0000000), wk =   0.0078125
        k(   62) = (  -2.0324647   0.0000000   0.1485415), wk =   0.0156250
        k(   63) = (  -2.0324647   0.0000000  -0.2970830), wk =   0.0078125

     Dense  grid:  1153415 G-vectors     FFT dimensions: ( 144, 144, 240)

     Smooth grid:   291749 G-vectors     FFT dimensions: (  90,  90, 150)

     Estimated max dynamical RAM per process >     657.19 MB

     Estimated total dynamical RAM >       6.42 GB

     Initial potential from superposition of free atoms

     starting charge   83.99353, renormalised to   84.00000
     Starting wfcs are   66 randomized atomic wfcs
     Checking if some PAW data can be deallocated... 

     total cpu time spent up to now is       20.7 secs

     Self-consistent Calculation

     iteration #  1     ecut=    80.00 Ry     beta= 0.70
     Davidson diagonalization with overlap
     ethr =  1.00E-02,  avg # of iterations =  2.0

     Threshold (ethr) on eigenvalues was too large:
     Diagonalizing with lowered threshold

     Davidson diagonalization with overlap
     ethr =  4.02E-04,  avg # of iterations =  4.0

     total cpu time spent up to now is      109.9 secs

     total energy              =   -4240.73048389 Ry
     estimated scf accuracy    <       0.43154790 Ry

     iteration #  2     ecut=    80.00 Ry     beta= 0.70
     Davidson diagonalization with overlap
     ethr =  5.14E-04,  avg # of iterations =  7.6

     total cpu time spent up to now is      174.3 secs

     total energy              =   -4240.63619681 Ry
     estimated scf accuracy    <       2.09695133 Ry

     iteration #  3     ecut=    80.00 Ry     beta= 0.70
     Davidson diagonalization with overlap
     ethr =  5.14E-04,  avg # of iterations =  5.2

     total cpu time spent up to now is      228.9 secs

     total energy              =   -4240.93332346 Ry
     estimated scf accuracy    <       0.01303867 Ry

     iteration #  4     ecut=    80.00 Ry     beta= 0.70
     Davidson diagonalization with overlap
     c_bands:  2 eigenvalues not converged
     c_bands:  1 eigenvalues not converged
     c_bands:  1 eigenvalues not converged
     c_bands:  2 eigenvalues not converged
     c_bands:  2 eigenvalues not converged
     c_bands:  2 eigenvalues not converged
     c_bands:  1 eigenvalues not converged
     c_bands:  1 eigenvalues not converged
     c_bands:  1 eigenvalues not converged
     c_bands:  2 eigenvalues not converged
     c_bands:  1 eigenvalues not converged
     c_bands:  1 eigenvalues not converged
     ethr =  1.55E-05,  avg # of iterations = 17.1

     total cpu time spent up to now is      332.1 secs

     WARNING: integrated charge=    83.99933165, expected=    84.00000000

     total energy              =   -4240.94907592 Ry
     estimated scf accuracy    <       0.08081177 Ry

     iteration #  5     ecut=    80.00 Ry     beta= 0.70
     Davidson diagonalization with overlap
     ethr =  1.55E-05,  avg # of iterations =  6.9

     total cpu time spent up to now is      385.0 secs

     WARNING: integrated charge=    83.99981617, expected=    84.00000000

     total energy              =   -4240.94983181 Ry
     estimated scf accuracy    <       0.01641618 Ry

     iteration #  6     ecut=    80.00 Ry     beta= 0.70
     Davidson diagonalization with overlap
     ethr =  1.55E-05,  avg # of iterations =  3.2

     total cpu time spent up to now is      429.1 secs

     WARNING: integrated charge=    84.00006768, expected=    84.00000000

     total energy              =   -4240.95110827 Ry
     estimated scf accuracy    <       0.00171110 Ry

     iteration #  7     ecut=    80.00 Ry     beta= 0.70
     Davidson diagonalization with overlap
     c_bands:  1 eigenvalues not converged
     c_bands:  1 eigenvalues not converged
     c_bands:  1 eigenvalues not converged
     c_bands:  1 eigenvalues not converged
     ethr =  2.04E-06,  avg # of iterations = 13.7
     Minimization algorithm failed to find Fermi energy: reverting to bisection
     Possible cause: smearing is larger than the electronic band-gap.

     total cpu time spent up to now is      507.4 secs

     WARNING: integrated charge=    83.99991551, expected=    84.00000000

     total energy              =   -4240.95205152 Ry
     estimated scf accuracy    <       0.00221761 Ry

     iteration #  8     ecut=    80.00 Ry     beta= 0.70
     Davidson diagonalization with overlap
     ethr =  2.04E-06,  avg # of iterations =  2.4
     Minimization algorithm failed to find Fermi energy: reverting to bisection
     Possible cause: smearing is larger than the electronic band-gap.

     total cpu time spent up to now is      548.0 secs

     WARNING: integrated charge=    83.99990241, expected=    84.00000000

     total energy              =   -4240.95209559 Ry
     estimated scf accuracy    <       0.00036299 Ry

     iteration #  9     ecut=    80.00 Ry     beta= 0.70
     Davidson diagonalization with overlap
     ethr =  4.32E-07,  avg # of iterations =  6.6

     total cpu time spent up to now is      600.4 secs

     WARNING: integrated charge=    83.99996048, expected=    84.00000000

     total energy              =   -4240.95220281 Ry
     estimated scf accuracy    <       0.00002487 Ry

     iteration # 10     ecut=    80.00 Ry     beta= 0.70
     Davidson diagonalization with overlap
     ethr =  2.96E-08,  avg # of iterations =  5.5

     total cpu time spent up to now is      650.6 secs

     total energy              =   -4240.95220785 Ry
     estimated scf accuracy    <       0.00001294 Ry

     iteration # 11     ecut=    80.00 Ry     beta= 0.70
     Davidson diagonalization with overlap
     ethr =  1.54E-08,  avg # of iterations =  5.1

     total cpu time spent up to now is      698.1 secs

     total energy              =   -4240.95221092 Ry
     estimated scf accuracy    <       0.00000027 Ry

     iteration # 12     ecut=    80.00 Ry     beta= 0.70
     Davidson diagonalization with overlap
     ethr =  3.24E-10,  avg # of iterations =  7.6

     total cpu time spent up to now is      760.1 secs

     total energy              =   -4240.95221113 Ry
     estimated scf accuracy    <       0.00000005 Ry

     iteration # 13     ecut=    80.00 Ry     beta= 0.70
     Davidson diagonalization with overlap
     ethr =  5.44E-11,  avg # of iterations =  5.3

     total cpu time spent up to now is      808.9 secs

     total energy              =   -4240.95221115 Ry
     estimated scf accuracy    <          6.2E-10 Ry

     iteration # 14     ecut=    80.00 Ry     beta= 0.70
     Davidson diagonalization with overlap
     ethr =  7.33E-13,  avg # of iterations =  9.1

     total cpu time spent up to now is      881.8 secs

     End of self-consistent calculation

          k = 0.0000 0.0000 0.0000 ( 36359 PWs)   bands (ev):

   -44.1376 -44.1376 -22.2688 -22.2687 -22.1728 -22.1728 -22.0646 -22.0645
    -7.7751  -7.3271  -7.1368  -6.8308  -6.3856  -5.3930  -4.9944  -4.8597
    -4.8074  -3.8476   0.3771   0.7443   0.7504   1.1016   1.5014   1.5203
     2.3484   2.3780   2.7058   2.7443   2.9697   3.0135   3.2025   3.4512
     3.6506   3.7391   3.9296   4.0601   4.2050   4.3313   4.3324   4.6558
     4.9266   5.5230   5.6240   5.7612   5.8374   5.9734   6.2395   6.8332
     6.9643   7.2737

          k = 0.0000 0.0000 0.1485 ( 36415 PWs)   bands (ev):

   -44.1376 -44.1376 -22.2688 -22.2688 -22.1728 -22.1728 -22.0646 -22.0646
    -7.7380  -7.4648  -7.0143  -6.8461  -6.3007  -5.6826  -4.8657  -4.8169
    -4.6744  -3.9644   0.4362   0.7808   0.9037   1.0272   1.0652   1.9454
     2.0798   2.3772   2.5839   2.8447   2.9580   3.1223   3.3766   3.3910
     3.6846   3.8103   3.9152   4.0586   4.1476   4.3494   4.3504   4.6619
     4.8149   5.0180   5.7805   5.9744   5.9814   5.9852   6.5806   6.6269
     6.7897   7.2214

          k = 0.0000 0.0000-0.2971 ( 36410 PWs)   bands (ev):

   -44.1376 -44.1376 -22.2688 -22.2688 -22.1728 -22.1728 -22.0646 -22.0646
    -7.6298  -7.6298  -6.8996  -6.8996  -6.0481  -6.0481  -4.8399  -4.8399
    -4.2718  -4.2718   0.6431   0.6431   0.9039   0.9039   1.3803   1.3803
     2.4600   2.4600   2.6617   2.6617   2.9196   2.9196   3.4586   3.4586
     3.8735   3.8735   3.9840   3.9840   4.3425   4.3425   4.3965   4.3965
     4.6991   4.6991   5.9500   5.9500   6.2222   6.2222   6.4003   6.4003
     7.0527   7.0527

          k = 0.2541 0.0645 0.0000 ( 36396 PWs)   bands (ev):

   -44.1372 -44.1372 -22.2668 -22.2668 -22.1826 -22.1826 -22.0635 -22.0634
    -7.6590  -7.2176  -7.0630  -6.7837  -6.3237  -5.3503  -5.0011  -4.8174
    -4.7643  -3.9945   0.4637   0.8751   0.8805   1.2197   1.3514   1.3715
     1.8810   1.8907   2.1194   2.5545   2.5841   3.1141   3.3596   3.7076
     3.7307   3.7679   3.7718   3.8037   4.0141   4.2490   4.2540   4.2668
     4.4826   4.6127   5.7769   5.9799   6.2388   6.5660   6.6111   6.8000
     7.0067   7.1604

          k = 0.2541 0.0645 0.1485 ( 36423 PWs)   bands (ev):

   -44.1372 -44.1372 -22.2668 -22.2668 -22.1826 -22.1826 -22.0634 -22.0634
    -7.6226  -7.3558  -6.9463  -6.7973  -6.2354  -5.6283  -4.8425  -4.7757
    -4.6859  -4.0879   0.5104   0.9131   0.9563   0.9728   1.1703   1.5015
     1.8082   2.2142   2.3162   2.5362   2.5650   2.9411   3.3104   3.3299
     3.5911   3.7402   3.9125   3.9199   4.0193   4.1313   4.2899   4.3203
     4.6825   4.9152   5.8277   5.8936   6.1868   6.2675   6.4408   6.7177
     7.2349   7.3070

          k = 0.2541 0.0645-0.2971 ( 36436 PWs)   bands (ev):

   -44.1372 -44.1372 -22.2668 -22.2668 -22.1826 -22.1826 -22.0634 -22.0634
    -7.5169  -7.5169  -6.8446  -6.8446  -5.9825  -5.9825  -4.8040  -4.8040
    -4.3426  -4.3426   0.6747   0.6747   1.0119   1.0119   1.2089   1.2089
     2.2309   2.2309   2.4796   2.4796   2.6752   2.6752   3.1575   3.1575
     3.6180   3.6180   3.9150   3.9150   4.0849   4.0849   4.3236   4.3236
     5.0785   5.0785   5.7672   5.7672   6.1260   6.1260   6.4476   6.4476
     7.4230   7.4231

          k = 0.5081 0.1290 0.0000 ( 36499 PWs)   bands (ev):

   -44.1363 -44.1363 -22.2621 -22.2621 -22.2062 -22.2062 -22.0606 -22.0605
    -7.3289  -6.9004  -6.8889  -6.6571  -6.1305  -5.2587  -5.0802  -4.7069
    -4.6578  -4.4350   0.5197   0.5811   0.6671   1.2209   1.2301   1.4843
     1.6838   1.7086   2.0253   2.0912   2.1670   2.2451   2.3820   3.3453
     3.4244   3.4932   3.4998   3.5908   3.7705   3.8953   3.9032   4.1682
     4.4755   5.1405   5.5132   6.0130   6.0298   6.5749   6.5902   6.9152
     7.4331   7.5655

          k = 0.5081 0.1290 0.1485 ( 36476 PWs)   bands (ev):

   -44.1363 -44.1363 -22.2621 -22.2621 -22.2062 -22.2062 -22.0606 -22.0605
    -7.2957  -7.0552  -6.7694  -6.6672  -6.0386  -5.4974  -4.9013  -4.6866
    -4.6651  -4.4653   0.4764   0.6755   0.7784   1.0355   1.2519   1.4045
     1.4689   1.5763   2.0241   2.0918   2.3335   2.4826   2.7985   3.3680
     3.4162   3.4345   3.5144   3.5810   3.6878   3.7483   3.8470   4.2250
     4.3376   4.5295   6.1037   6.1534   6.2788   6.5776   6.6324   6.7815
     7.2710   7.5003

          k = 0.5081 0.1290-0.2971 ( 36466 PWs)   bands (ev):

   -44.1363 -44.1363 -22.2621 -22.2621 -22.2062 -22.2062 -22.0605 -22.0605
    -7.1997  -7.1997  -6.7002  -6.7002  -5.8013  -5.8013  -4.7614  -4.7614
    -4.5570  -4.5570   0.5645   0.5645   1.0523   1.0523   1.1469   1.1469
     1.4014   1.4014   2.0582   2.0582   2.7264   2.7264   3.1472   3.1472
     3.3899   3.3899   3.5515   3.5515   3.7037   3.7037   3.8251   3.8251
     4.3072   4.3072   6.3447   6.3447   6.5520   6.5520   6.8125   6.8125
     7.1199   7.1199

          k = 0.7622 0.1934 0.0000 ( 36521 PWs)   bands (ev):

   -44.1354 -44.1354 -22.2573 -22.2573 -22.2298 -22.2298 -22.0577 -22.0576
    -6.8950  -6.7314  -6.4323  -6.4151  -5.8219  -5.3561  -5.2344  -5.0914
    -4.5836  -4.5478   0.0134   0.1144   0.5706   1.0504   1.0771   1.2586
     1.4795   1.6014   1.9483   2.0347   2.2570   2.4044   2.4097   2.7787
     2.8540   3.2639   3.3281   3.4209   3.6212   3.6963   3.7078   3.7892
     3.8838   4.5628   5.8504   6.2739   6.3386   6.8045   6.8070   6.9075
     7.2743   7.6028

          k = 0.7622 0.1934 0.1485 ( 36503 PWs)   bands (ev):

   -44.1354 -44.1354 -22.2573 -22.2573 -22.2298 -22.2298 -22.0577 -22.0577
    -6.8738  -6.7579  -6.4350  -6.4255  -5.7515  -5.4357  -5.1997  -5.1077
    -4.5743  -4.5498   0.0486   0.2557   0.4414   0.9309   1.0511   1.2216
     1.4935   1.6362   1.8452   2.0681   2.1341   2.6295   2.6918   2.8237
     2.8798   3.1047   3.2716   3.3907   3.5224   3.6198   3.6531   3.9264
     3.9758   4.5802   5.5872   6.3158   6.6195   6.6986   6.8626   6.9553
     7.0507   7.5473

          k = 0.7622 0.1934-0.2971 ( 36522 PWs)   bands (ev):

   -44.1354 -44.1354 -22.2573 -22.2573 -22.2298 -22.2298 -22.0577 -22.0577
    -6.8187  -6.8187  -6.4358  -6.4358  -5.5942  -5.5942  -5.1490  -5.1490
    -4.5586  -4.5586   0.2032   0.2032   0.5959   0.5959   1.0800   1.0800
     1.5699   1.5699   2.0092   2.0092   2.3700   2.3700   2.8095   2.8095
     2.9932   2.9932   3.3441   3.3441   3.5897   3.5897   3.8539   3.8539
     4.1183   4.1183   6.0892   6.0892   6.4237   6.4237   6.9395   6.9395
     7.3898   7.3898

          k =-1.0162-0.2579 0.0000 ( 36506 PWs)   bands (ev):

   -44.1350 -44.1350 -22.2551 -22.2551 -22.2396 -22.2396 -22.0565 -22.0565
    -6.7043  -6.6843  -5.9191  -5.9080  -5.8536  -5.8450  -5.3899  -5.3893
    -4.5265  -4.5029   0.0165   0.0402   0.3470   0.3681   1.0120   1.0212
     1.4676   1.6712   2.2346   2.3838   2.3907   2.3965   2.7923   2.8070
     2.8147   2.8652   3.2287   3.2622   3.3140   3.4367   3.5319   3.7260
     3.7458   4.0347   6.4893   6.5137   6.5352   6.6154   6.9961   7.0869
     7.0954   7.1080

          k =-1.0162-0.2579 0.1485 ( 36506 PWs)   bands (ev):

   -44.1350 -44.1350 -22.2551 -22.2551 -22.2396 -22.2396 -22.0565 -22.0565
    -6.7006  -6.6864  -5.9374  -5.9292  -5.8343  -5.8288  -5.3853  -5.3850
    -4.5270  -4.5103  -0.0795  -0.0721   0.5709   0.5776   1.0141   1.0340
     1.4645   1.5926   1.9642   2.0565   2.3767   2.3950   2.7177   2.7177
     2.9428   3.0136   3.1234   3.1973   3.5540   3.5718   3.6804   3.7516
     4.0390   4.1234   5.9641   5.9782   6.4572   6.5323   7.0485   7.0776
     7.2952   7.3358

          k =-1.0162-0.2579-0.2971 ( 36528 PWs)   bands (ev):

   -44.1350 -44.1350 -22.2551 -22.2551 -22.2396 -22.2396 -22.0565 -22.0565
    -6.6927  -6.6927  -5.9477  -5.9477  -5.8192  -5.8192  -5.3807  -5.3807
    -4.5226  -4.5226  -0.1388  -0.1388   0.8587   0.8587   0.9421   0.9421
     1.5396   1.5396   1.6956   1.6956   2.3765   2.3765   2.7728   2.7728
     2.9189   2.9189   3.1655   3.1655   3.6260   3.6260   3.7977   3.7977
     4.4274   4.4274   5.4830   5.4830   6.4141   6.4141   7.0865   7.0865
     7.3876   7.3876

          k = 0.5081 0.0000 0.0000 ( 36503 PWs)   bands (ev):

   -44.1363 -44.1363 -22.2621 -22.2621 -22.2062 -22.2062 -22.0606 -22.0605
    -7.3336  -6.9013  -6.8902  -6.6519  -6.1267  -5.2591  -5.0771  -4.7018
    -4.6641  -4.4345   0.5257   0.5842   0.6588   1.1958   1.2251   1.4620
     1.6860   1.7105   2.0115   2.1196   2.1322   2.2368   2.3795   3.3323
     3.4497   3.4583   3.5598   3.5950   3.7766   3.8887   3.9461   4.2053
     4.4775   5.1379   5.5190   5.9922   6.0649   6.5357   6.5390   6.9507
     7.4523   7.5777

          k = 0.5081 0.0000 0.1485 ( 36453 PWs)   bands (ev):

   -44.1363 -44.1363 -22.2621 -22.2621 -22.2062 -22.2062 -22.0606 -22.0605
    -7.3003  -7.0585  -6.7671  -6.6621  -6.0362  -5.4976  -4.8964  -4.6884
    -4.6649  -4.4663   0.4773   0.6708   0.7805   1.0377   1.2336   1.4179
     1.4285   1.5616   2.0205   2.0997   2.3484   2.4448   2.7934   3.3577
     3.4300   3.4635   3.5000   3.5886   3.6826   3.8171   3.8382   4.2629
     4.3509   4.5250   6.0994   6.1644   6.2944   6.5283   6.5960   6.8131
     7.2934   7.5076

          k = 0.5081 0.0000-0.2971 ( 36452 PWs)   bands (ev):

   -44.1363 -44.1363 -22.2621 -22.2621 -22.2062 -22.2062 -22.0605 -22.0605
    -7.2040  -7.2040  -6.6956  -6.6956  -5.8008  -5.8008  -4.7573  -4.7573
    -4.5598  -4.5598   0.5612   0.5612   1.0525   1.0525   1.1607   1.1607
     1.3609   1.3609   2.0597   2.0597   2.7175   2.7175   3.1332   3.1332
     3.3886   3.3886   3.5777   3.5777   3.7283   3.7283   3.8261   3.8261
     4.3289   4.3289   6.3605   6.3605   6.5161   6.5161   6.8292   6.8292
     7.1213   7.1213

          k = 0.7622 0.0645 0.0000 ( 36505 PWs)   bands (ev):

   -44.1354 -44.1354 -22.2573 -22.2573 -22.2298 -22.2298 -22.0577 -22.0576
    -6.9040  -6.7292  -6.4239  -6.4168  -5.8216  -5.3525  -5.2352  -5.0908
    -4.5750  -4.5575   0.0088   0.1251   0.5890   1.0651   1.0822   1.2728
     1.4407   1.5618   1.9217   2.0518   2.2553   2.3562   2.3859   2.7525
     2.8416   3.3152   3.3515   3.4449   3.6238   3.6355   3.7322   3.8268
     3.9013   4.5997   5.8481   6.2786   6.3180   6.7754   6.8646   6.8654
     7.2924   7.6139

          k = 0.7622 0.0645 0.1485 ( 36509 PWs)   bands (ev):

   -44.1354 -44.1354 -22.2573 -22.2573 -22.2298 -22.2298 -22.0577 -22.0577
    -6.8820  -6.7589  -6.4265  -6.4238  -5.7519  -5.4350  -5.1981  -5.1069
    -4.5684  -4.5566   0.0509   0.2584   0.4508   0.9381   1.0615   1.2372
     1.4592   1.6363   1.8721   1.9966   2.0639   2.6493   2.6740   2.8062
     2.8634   3.1070   3.3303   3.4014   3.5113   3.6234   3.6644   3.9475
     4.0098   4.5780   5.6130   6.2960   6.6286   6.6966   6.8779   6.9525
     7.0262   7.5663

          k = 0.7622 0.0645-0.2971 ( 36472 PWs)   bands (ev):

   -44.1354 -44.1354 -22.2573 -22.2573 -22.2298 -22.2298 -22.0577 -22.0577
    -6.8244  -6.8244  -6.4292  -6.4292  -5.5951  -5.5951  -5.1473  -5.1473
    -4.5589  -4.5589   0.2096   0.2096   0.5898   0.5898   1.1037   1.1037
     1.5634   1.5634   1.9602   1.9602   2.3416   2.3416   2.8094   2.8094
     2.9820   2.9820   3.4056   3.4056   3.5866   3.5866   3.8409   3.8409
     4.1398   4.1398   6.1144   6.1144   6.4247   6.4247   6.9065   6.9065
     7.4170   7.4170

          k = 1.0162 0.1290 0.0000 ( 36514 PWs)   bands (ev):

   -44.1350 -44.1350 -22.2551 -22.2551 -22.2396 -22.2396 -22.0565 -22.0565
    -6.7043  -6.6843  -5.9188  -5.9083  -5.8536  -5.8450  -5.3899  -5.3892
    -4.5265  -4.5029   0.0106   0.0462   0.3424   0.3728   1.0060   1.0284
     1.4733   1.6622   2.2350   2.3807   2.3814   2.3998   2.7889   2.8053
     2.8268   2.8782   3.2446   3.2449   3.3050   3.4265   3.5639   3.7121
     3.7265   4.0475   6.4802   6.5234   6.5303   6.6216   7.0124   7.0886
     7.0975   7.0976

          k = 1.0162 0.1290 0.1485 ( 36524 PWs)   bands (ev):

   -44.1350 -44.1350 -22.2551 -22.2551 -22.2396 -22.2396 -22.0565 -22.0565
    -6.7006  -6.6864  -5.9373  -5.9293  -5.8343  -5.8288  -5.3854  -5.3849
    -4.5270  -4.5103  -0.0817  -0.0702   0.5719   0.5772   1.0171   1.0316
     1.4695   1.5879   1.9757   2.0408   2.3742   2.3901   2.6736   2.7689
     2.9581   3.0258   3.1083   3.1914   3.5315   3.6086   3.6743   3.7387
     4.0214   4.1429   5.9555   5.9898   6.4541   6.5349   7.0547   7.0764
     7.3012   7.3303

          k = 1.0162 0.1290-0.2971 ( 36516 PWs)   bands (ev):

   -44.1350 -44.1350 -22.2551 -22.2551 -22.2396 -22.2396 -22.0565 -22.0565
    -6.6927  -6.6927  -5.9477  -5.9477  -5.8192  -5.8192  -5.3807  -5.3807
    -4.5226  -4.5226  -0.1389  -0.1389   0.8590   0.8590   0.9424   0.9424
     1.5403   1.5403   1.6964   1.6964   2.3670   2.3670   2.7572   2.7572
     2.9670   2.9670   3.1402   3.1402   3.6303   3.6303   3.7930   3.7930
     4.4278   4.4278   5.4852   5.4852   6.4136   6.4136   7.0883   7.0883
     7.3880   7.3880

          k =-0.7622-0.3224 0.0000 ( 36511 PWs)   bands (ev):

   -44.1354 -44.1354 -22.2573 -22.2573 -22.2298 -22.2298 -22.0577 -22.0576
    -6.8811  -6.7356  -6.4443  -6.4126  -5.8224  -5.3612  -5.2334  -5.0923
    -4.5905  -4.5395   0.0201   0.0998   0.5453   1.0200   1.0941   1.2406
     1.5022   1.6651   2.0033   2.0129   2.2904   2.4303   2.4411   2.8153
     2.8681   3.1977   3.3090   3.4288   3.5821   3.6619   3.6903   3.8429
     3.8433   4.5013   5.8536   6.2634   6.3818   6.7250   6.8492   6.9738
     7.2403   7.5908

          k =-0.7622-0.3224 0.1485 ( 36492 PWs)   bands (ev):

   -44.1354 -44.1354 -22.2573 -22.2573 -22.2298 -22.2298 -22.0577 -22.0577
    -6.8611  -6.7572  -6.4467  -6.4286  -5.7508  -5.4366  -5.2018  -5.1090
    -4.5791  -4.5439   0.0446   0.2535   0.4274   0.9158   1.0511   1.2004
     1.5331   1.6366   1.8261   2.1734   2.2224   2.6118   2.6988   2.8453
     2.8968   3.1233   3.1987   3.3765   3.4777   3.6128   3.6794   3.8836
     3.9328   4.5819   5.5527   6.3476   6.5941   6.6990   6.8370   6.9937
     7.0788   7.5118

          k =-0.7622-0.3224-0.2971 ( 36508 PWs)   bands (ev):

   -44.1354 -44.1354 -22.2573 -22.2573 -22.2298 -22.2298 -22.0577 -22.0577
    -6.8103  -6.8103  -6.4456  -6.4456  -5.5929  -5.5929  -5.1515  -5.1515
    -4.5581  -4.5581   0.1942   0.1942   0.6043   0.6043   1.0523   1.0523
     1.5779   1.5779   2.0638   2.0638   2.4298   2.4298   2.8110   2.8110
     3.0093   3.0093   3.2569   3.2569   3.5895   3.5895   3.8587   3.8587
     4.0955   4.0955   6.0564   6.0564   6.4211   6.4211   6.9947   6.9947
     7.3435   7.3435

          k =-0.5081-0.2579 0.0000 ( 36480 PWs)   bands (ev):

   -44.1363 -44.1363 -22.2621 -22.2621 -22.2062 -22.2062 -22.0606 -22.0605
    -7.3172  -6.8985  -6.8864  -6.6691  -6.1399  -5.2577  -5.0876  -4.7148
    -4.6471  -4.4361   0.5058   0.5805   0.6755   1.2414   1.2955   1.5381
     1.6788   1.7102   2.0609   2.0623   2.1932   2.2741   2.3852   3.3734
     3.3801   3.4264   3.5305   3.5318   3.7443   3.8123   3.9170   4.0929
     4.4668   5.1447   5.5016   5.9366   6.0743   6.6739   6.7109   6.8305
     7.3757   7.5387

          k =-0.5081-0.2579 0.1485 ( 36485 PWs)   bands (ev):

   -44.1363 -44.1363 -22.2621 -22.2621 -22.2062 -22.2062 -22.0606 -22.0605
    -7.2842  -7.0472  -6.7758  -6.6793  -6.0444  -5.4970  -4.9129  -4.6829
    -4.6651  -4.4630   0.4746   0.6850   0.7721   1.0308   1.3011   1.4020
     1.5374   1.6216   2.0264   2.0797   2.3183   2.5470   2.8108   3.3290
     3.3915   3.4281   3.5279   3.5468   3.6281   3.7144   3.8380   4.1472
     4.2966   4.5375   6.0893   6.1448   6.2496   6.6806   6.7133   6.7345
     7.2113   7.4858

          k =-0.5081-0.2579-0.2971 ( 36478 PWs)   bands (ev):

   -44.1363 -44.1363 -22.2621 -22.2621 -22.2062 -22.2062 -22.0605 -22.0605
    -7.1892  -7.1892  -6.7116  -6.7116  -5.8025  -5.8025  -4.7707  -4.7707
    -4.5505  -4.5505   0.5720   0.5720   1.0514   1.0514   1.1241   1.1241
     1.4971   1.4971   2.0511   2.0511   2.7519   2.7519   3.1750   3.1750
     3.3820   3.3820   3.4656   3.4656   3.6862   3.6862   3.8167   3.8167
     4.2546   4.2546   6.3074   6.3074   6.6281   6.6281   6.7774   6.7774
     7.1234   7.1234

          k =-0.2541-0.1934 0.0000 ( 36410 PWs)   bands (ev):

   -44.1372 -44.1372 -22.2668 -22.2668 -22.1826 -22.1826 -22.0635 -22.0634
    -7.6508  -7.2162  -7.0561  -6.7928  -6.3376  -5.3510  -5.0086  -4.8252
    -4.7532  -3.9955   0.4907   0.8884   0.9459   1.2474   1.3491   1.4047
     1.9052   1.9130   2.1211   2.5211   2.5722   3.1791   3.3166   3.6313
     3.6619   3.7213   3.7630   3.8667   3.8767   4.2035   4.2283   4.2535
     4.3998   4.6123   5.8304   6.0040   6.2981   6.5991   6.6227   6.8123
     6.9932   7.0805

          k =-0.2541-0.1934 0.1485 ( 36427 PWs)   bands (ev):

   -44.1372 -44.1372 -22.2668 -22.2668 -22.1826 -22.1826 -22.0634 -22.0634
    -7.6146  -7.3501  -6.9470  -6.8061  -6.2455  -5.6295  -4.8608  -4.7695
    -4.6793  -4.0878   0.5344   0.9438   0.9717   1.0317   1.2026   1.5167
     1.8133   2.2171   2.3416   2.5200   2.5481   2.9240   3.3282   3.3702
     3.5888   3.6394   3.7639   3.8957   3.9769   4.1103   4.2493   4.2682
     4.6747   4.9052   5.8128   5.9159   6.1739   6.3331   6.5121   6.7214
     7.1937   7.2969

          k =-0.2541-0.1934-0.2971 ( 36422 PWs)   bands (ev):

   -44.1372 -44.1372 -22.2668 -22.2668 -22.1826 -22.1826 -22.0634 -22.0634
    -7.5095  -7.5095  -6.8514  -6.8514  -5.9866  -5.9866  -4.8092  -4.8092
    -4.3401  -4.3401   0.6932   0.6932   1.0748   1.0748   1.2172   1.2172
     2.2317   2.2317   2.4712   2.4712   2.6736   2.6736   3.1801   3.1801
     3.5807   3.5807   3.8138   3.8138   4.0683   4.0683   4.2692   4.2692
     5.0854   5.0854   5.7277   5.7277   6.1300   6.1300   6.5286   6.5286
     7.4013   7.4013

          k = 0.0000-0.1290 0.0000 ( 36417 PWs)   bands (ev):

   -44.1376 -44.1376 -22.2688 -22.2687 -22.1728 -22.1728 -22.0646 -22.0645
    -7.7708  -7.3263  -7.1322  -6.8358  -6.3942  -5.3938  -4.9986  -4.8657
    -4.7997  -3.8482   0.3977   0.7551   0.7857   1.1099   1.5123   1.5470
     2.3501   2.3788   2.7129   2.7432   2.9687   3.0193   3.2404   3.4341
     3.5948   3.7281   3.8209   4.0136   4.2051   4.2751   4.2862   4.6558
     4.9165   5.4853   5.6487   5.7686   5.8551   6.0206   6.2893   6.8192
     6.9646   7.2468

          k = 0.0000-0.1290 0.1485 ( 36419 PWs)   bands (ev):

   -44.1376 -44.1376 -22.2688 -22.2688 -22.1728 -22.1728 -22.0646 -22.0646
    -7.7337  -7.4618  -7.0137  -6.8507  -6.3074  -5.6837  -4.8765  -4.8125
    -4.6712  -3.9645   0.4552   0.8226   0.9147   1.0292   1.0864   1.9520
     2.0963   2.3791   2.5871   2.8465   2.9575   3.1350   3.3517   3.3945
     3.6761   3.8004   3.8142   3.9893   4.1454   4.2960   4.3069   4.6617
     4.8091   5.0079   5.7913   5.9861   5.9923   6.0192   6.6021   6.6240
     6.7905   7.2062

          k = 0.0000-0.1290-0.2971 ( 36464 PWs)   bands (ev):

   -44.1376 -44.1376 -22.2688 -22.2688 -22.1728 -22.1728 -22.0646 -22.0646
    -7.6259  -7.6259  -6.9028  -6.9028  -6.0512  -6.0512  -4.8425  -4.8425
    -4.2707  -4.2707   0.6649   0.6649   0.9264   0.9264   1.3881   1.3881
     2.4624   2.4624   2.6726   2.6726   2.9203   2.9203   3.4394   3.4394
     3.8247   3.8247   3.9772   3.9772   4.2483   4.2483   4.4137   4.4137
     4.6977   4.6977   5.9553   5.9553   6.2415   6.2415   6.4025   6.4025
     7.0523   7.0523

          k = 1.0162 0.0000 0.0000 ( 36499 PWs)   bands (ev):

   -44.1350 -44.1350 -22.2551 -22.2551 -22.2396 -22.2396 -22.0565 -22.0565
    -6.7043  -6.6843  -5.9185  -5.9086  -5.8536  -5.8449  -5.3900  -5.3892
    -4.5265  -4.5029   0.0063   0.0507   0.3390   0.3764   1.0028   1.0329
     1.4796   1.6525   2.2353   2.3720   2.3797   2.4025   2.7859   2.8033
     2.8347   2.8941   3.2470   3.2645   3.2763   3.4123   3.6075   3.6956
     3.7000   4.0593   6.4742   6.5258   6.5302   6.6273   7.0356   7.0800
     7.0901   7.0997

          k = 1.0162 0.0000 0.1485 ( 36485 PWs)   bands (ev):

   -44.1350 -44.1350 -22.2551 -22.2551 -22.2396 -22.2396 -22.0565 -22.0565
    -6.7006  -6.6863  -5.9371  -5.9295  -5.8343  -5.8289  -5.3855  -5.3848
    -4.5270  -4.5103  -0.0833  -0.0690   0.5731   0.5766   1.0227   1.0265
     1.4750   1.5826   2.0042   2.0081   2.3761   2.3811   2.6592   2.7871
     2.9800   3.0627   3.0643   3.1862   3.5228   3.6327   3.6739   3.7191
     4.0085   4.1577   5.9510   5.9974   6.4514   6.5373   7.0629   7.0732
     7.3132   7.3187

          k = 1.0162 0.0000-0.2971 ( 36514 PWs)   bands (ev):

   -44.1350 -44.1350 -22.2551 -22.2551 -22.2396 -22.2396 -22.0565 -22.0565
    -6.6927  -6.6927  -5.9477  -5.9477  -5.8192  -5.8192  -5.3807  -5.3807
    -4.5226  -4.5226  -0.1390  -0.1390   0.8593   0.8593   0.9427   0.9427
     1.5411   1.5411   1.6972   1.6972   2.3579   2.3579   2.7463   2.7463
     3.0319   3.0319   3.0929   3.0929   3.6347   3.6347   3.7881   3.7881
     4.4283   4.4283   5.4874   5.4874   6.4131   6.4131   7.0901   7.0901
     7.3885   7.3885

          k = 1.2703 0.0645 0.0000 ( 36468 PWs)   bands (ev):

   -44.1354 -44.1354 -22.2573 -22.2573 -22.2298 -22.2298 -22.0577 -22.0576
    -6.8700  -6.7397  -6.4528  -6.4108  -5.8228  -5.3649  -5.2326  -5.0929
    -4.5941  -4.5349   0.0249   0.0896   0.5279   1.0048   1.1059   1.2285
     1.5067   1.7109   1.9988   2.0575   2.3286   2.4343   2.4488   2.8428
     2.8733   3.1424   3.3307   3.4808   3.5294   3.5661   3.6959   3.7967
     3.9201   4.4470   5.8560   6.2595   6.4166   6.6660   6.8839   7.0316
     7.2046   7.5924

          k = 1.2703 0.0645 0.1485 ( 36490 PWs)   bands (ev):

   -44.1354 -44.1354 -22.2573 -22.2573 -22.2298 -22.2298 -22.0577 -22.0577
    -6.8511  -6.7576  -6.4551  -6.4309  -5.7503  -5.4373  -5.2033  -5.1100
    -4.5815  -4.5407   0.0412   0.2531   0.4169   0.9039   1.0573   1.1861
     1.5570   1.6370   1.8187   2.2500   2.2901   2.5965   2.6965   2.8556
     2.9101   3.1379   3.1636   3.3664   3.4419   3.5648   3.7523   3.8217
     3.9097   4.5820   5.5299   6.3752   6.5644   6.6985   6.8253   7.0371
     7.0935   7.4800

          k = 1.2703 0.0645-0.2971 ( 36480 PWs)   bands (ev):

   -44.1354 -44.1354 -22.2573 -22.2573 -22.2298 -22.2298 -22.0577 -22.0577
    -6.8041  -6.8041  -6.4527  -6.4527  -5.5920  -5.5920  -5.1532  -5.1532
    -4.5578  -4.5578   0.1879   0.1879   0.6099   0.6099   1.0360   1.0360
     1.5835   1.5835   2.0909   2.0909   2.4898   2.4898   2.8175   2.8175
     3.0193   3.0193   3.1874   3.1874   3.5884   3.5884   3.8511   3.8511
     4.0868   4.0868   6.0348   6.0348   6.4186   6.4186   7.0432   7.0432
     7.3016   7.3016

          k =-0.5081-0.3869 0.0000 ( 36463 PWs)   bands (ev):

   -44.1363 -44.1363 -22.2621 -22.2621 -22.2062 -22.2062 -22.0606 -22.0605
    -7.3047  -6.8965  -6.8851  -6.6803  -6.1497  -5.2567  -5.0951  -4.7196
    -4.6394  -4.4372   0.4925   0.5874   0.6703   1.2520   1.4045   1.5832
     1.6678   1.7132   2.0489   2.1005   2.2159   2.2847   2.3831   3.2624
     3.3973   3.4355   3.4551   3.5853   3.7022   3.7836   3.8308   4.0869
     4.4547   5.1448   5.4924   5.8455   6.1387   6.7454   6.7859   6.8321
     7.2943   7.5288

          k =-0.5081-0.3869 0.1485 ( 36477 PWs)   bands (ev):

   -44.1363 -44.1363 -22.2621 -22.2621 -22.2062 -22.2062 -22.0606 -22.0605
    -7.2720  -7.0389  -6.7834  -6.6912  -6.0502  -5.4965  -4.9239  -4.6807
    -4.6641  -4.4607   0.4732   0.6938   0.7624   1.0266   1.3584   1.4035
     1.6000   1.6869   2.0218   2.0731   2.3121   2.5875   2.8252   3.2209
     3.3919   3.4289   3.4684   3.5569   3.6242   3.7082   3.7912   4.1133
     4.2353   4.5439   6.0365   6.1641   6.2343   6.6323   6.7917   6.8580
     7.1349   7.4846

          k =-0.5081-0.3869-0.2971 ( 36492 PWs)   bands (ev):

   -44.1363 -44.1363 -22.2621 -22.2621 -22.2062 -22.2062 -22.0605 -22.0605
    -7.1781  -7.1781  -6.7237  -6.7237  -5.8036  -5.8036  -4.7797  -4.7797
    -4.5445  -4.5445   0.5789   0.5789   1.0498   1.0498   1.1080   1.1080
     1.6041   1.6041   2.0345   2.0345   2.7847   2.7847   3.1635   3.1635
     3.3433   3.3433   3.4285   3.4285   3.6843   3.6843   3.8023   3.8023
     4.2034   4.2034   6.2716   6.2716   6.6635   6.6635   6.7727   6.7727
     7.1414   7.1414

          k =-0.2541-0.3224 0.0000 ( 36485 PWs)   bands (ev):

   -44.1372 -44.1372 -22.2668 -22.2668 -22.1826 -22.1826 -22.0635 -22.0634
    -7.6388  -7.2143  -7.0471  -6.8046  -6.3580  -5.3519  -5.0199  -4.8302
    -4.7432  -3.9970   0.5167   0.9009   1.0687   1.2962   1.3433   1.4763
     1.9422   1.9475   2.1215   2.4454   2.5268   3.2514   3.2901   3.4541
     3.6128   3.6158   3.7446   3.8389   3.9012   4.1259   4.1564   4.2213
     4.3670   4.5917   5.9151   6.0266   6.3531   6.5822   6.7066   6.8281
     6.9223   7.0163

          k =-0.2541-0.3224 0.1485 ( 36445 PWs)   bands (ev):

   -44.1372 -44.1372 -22.2668 -22.2668 -22.1826 -22.1826 -22.0634 -22.0634
    -7.6029  -7.3419  -6.9489  -6.8180  -6.2600  -5.6310  -4.8818  -4.7647
    -4.6709  -4.0877   0.5561   0.9599   0.9984   1.1574   1.2786   1.5403
     1.8269   2.2201   2.3766   2.4511   2.5168   2.9047   3.3652   3.3938
     3.4463   3.5403   3.6865   3.8846   3.9122   4.0735   4.1651   4.2212
     4.6959   4.8769   5.7978   5.9472   6.1691   6.3538   6.6107   6.7345
     7.1485   7.2805

          k =-0.2541-0.3224-0.2971 ( 36442 PWs)   bands (ev):

   -44.1372 -44.1372 -22.2668 -22.2668 -22.1826 -22.1826 -22.0634 -22.0634
    -7.4987  -7.4987  -6.8615  -6.8615  -5.9922  -5.9922  -4.8165  -4.8165
    -4.3365  -4.3365   0.7075   0.7075   1.1950   1.1950   1.2308   1.2308
     2.2352   2.2352   2.4377   2.4377   2.6671   2.6671   3.2178   3.2178
     3.4255   3.4255   3.7936   3.7936   4.0312   4.0312   4.2019   4.2019
     5.0970   5.0970   5.6845   5.6845   6.1117   6.1117   6.6312   6.6312
     7.3741   7.3742

          k = 0.0000-0.2579 0.0000 ( 36445 PWs)   bands (ev):

   -44.1376 -44.1376 -22.2688 -22.2688 -22.1728 -22.1728 -22.0646 -22.0645
    -7.7602  -7.3246  -7.1213  -6.8471  -6.4160  -5.3957  -5.0099  -4.8724
    -4.7877  -3.8497   0.4373   0.7672   0.8981   1.1564   1.5379   1.6060
     2.3544   2.3819   2.7307   2.7404   2.9661   3.0442   3.3142   3.3432
     3.3868   3.6616   3.7013   3.9653   4.1428   4.1538   4.2052   4.6560
     4.8925   5.4318   5.7114   5.7867   5.8997   6.0925   6.3803   6.7616
     6.9652   7.1997

          k = 0.0000-0.2579 0.1485 ( 36452 PWs)   bands (ev):

   -44.1376 -44.1376 -22.2688 -22.2688 -22.1728 -22.1728 -22.0646 -22.0646
    -7.7233  -7.4545  -7.0129  -6.8616  -6.3237  -5.6862  -4.8974  -4.8063
    -4.6641  -3.9646   0.4892   0.9212   0.9475   1.0773   1.1279   1.9701
     2.1345   2.3837   2.5945   2.8517   2.9561   3.1355   3.2708   3.3296
     3.6273   3.6568   3.7763   3.9162   4.1396   4.1708   4.1895   4.6616
     4.7954   4.9954   5.8244   5.9975   6.0322   6.0645   6.5850   6.6568
     6.7926   7.1704

          k = 0.0000-0.2579-0.2971 ( 36454 PWs)   bands (ev):

   -44.1376 -44.1376 -22.2688 -22.2688 -22.1728 -22.1728 -22.0646 -22.0646
    -7.6162  -7.6162  -6.9108  -6.9108  -6.0584  -6.0584  -4.8489  -4.8489
    -4.2680  -4.2680   0.6980   0.6980   1.0136   1.0136   1.4077   1.4077
     2.4681   2.4681   2.6952   2.6952   2.9221   2.9221   3.3095   3.3095
     3.7724   3.7724   3.9605   3.9605   4.1105   4.1105   4.4011   4.4011
     4.6945   4.6945   5.9538   5.9538   6.2802   6.2802   6.4081   6.4081
     7.0373   7.0373

          k = 1.5243 0.0000 0.0000 ( 36439 PWs)   bands (ev):

   -44.1363 -44.1363 -22.2621 -22.2621 -22.2062 -22.2062 -22.0606 -22.0605
    -7.2993  -6.8957  -6.8850  -6.6847  -6.1538  -5.2562  -5.0982  -4.7211
    -4.6367  -4.4376   0.4872   0.5932   0.6637   1.2562   1.4777   1.5897
     1.6548   1.7069   2.0581   2.1185   2.2442   2.2592   2.3802   3.2156
     3.3839   3.4091   3.4660   3.6838   3.6937   3.7021   3.7730   4.1040
     4.4491   5.1431   5.4890   5.8077   6.1680   6.7092   6.8414   6.8839
     7.2477   7.5599

          k = 1.5243 0.0000 0.1485 ( 36476 PWs)   bands (ev):

   -44.1363 -44.1363 -22.2621 -22.2621 -22.2062 -22.2062 -22.0606 -22.0605
    -7.2667  -7.0354  -6.7869  -6.6961  -6.0527  -5.4962  -4.9283  -4.6803
    -4.6634  -4.4598   0.4727   0.6979   0.7566   1.0250   1.3868   1.4021
     1.6285   1.7174   2.0289   2.0612   2.3119   2.5945   2.8333   3.1753
     3.3519   3.4381   3.4515   3.6155   3.6285   3.7131   3.7146   4.1398
     4.1838   4.5465   6.0099   6.1754   6.2306   6.6027   6.8345   6.9246
     7.0868   7.4965

          k = 1.5243 0.0000-0.2971 ( 36508 PWs)   bands (ev):

   -44.1363 -44.1363 -22.2621 -22.2621 -22.2062 -22.2062 -22.0605 -22.0605
    -7.1734  -7.1734  -6.7289  -6.7289  -5.8040  -5.8040  -4.7833  -4.7833
    -4.5422  -4.5422   0.5816   0.5816   1.0491   1.0491   1.1023   1.1023
     1.6564   1.6564   2.0216   2.0216   2.8021   2.8021   3.1289   3.1289
     3.3420   3.3420   3.4254   3.4254   3.6819   3.6819   3.7947   3.7947
     4.1833   4.1833   6.2572   6.2572   6.6589   6.6589   6.7857   6.7857
     7.1553   7.1553

          k =-0.2541-0.4514 0.0000 ( 36444 PWs)   bands (ev):

   -44.1372 -44.1372 -22.2668 -22.2668 -22.1826 -22.1826 -22.0635 -22.0634
    -7.6300  -7.2129  -7.0414  -6.8119  -6.3732  -5.3524  -5.0281  -4.8312
    -4.7382  -3.9980   0.5267   0.9107   1.1859   1.3207   1.3374   1.5630
     1.9740   1.9808   2.1174   2.3610   2.4517   3.2010   3.3180   3.3842
     3.5339   3.6396   3.7655   3.8205   3.8295   4.0891   4.1287   4.1725
     4.3703   4.5741   5.9853   6.0376   6.3789   6.5667   6.7693   6.8337
     6.8403   6.9993

          k =-0.2541-0.4514 0.1485 ( 36461 PWs)   bands (ev):

   -44.1372 -44.1372 -22.2668 -22.2668 -22.1826 -22.1826 -22.0634 -22.0634
    -7.5942  -7.3359  -6.9511  -6.8259  -6.2705  -5.6319  -4.8949  -4.7626
    -4.6656  -4.0876   0.5636   0.9737   1.0059   1.2908   1.3418   1.5632
     1.8482   2.2195   2.3679   2.4050   2.4550   2.8992   3.2964   3.3193
     3.4233   3.5587   3.7310   3.8470   3.8658   3.9719   4.1603   4.1869
     4.7330   4.8404   5.7898   5.9714   6.1755   6.3294   6.6784   6.7416
     7.1281   7.2672

          k =-0.2541-0.4514-0.2971 ( 36490 PWs)   bands (ev):

   -44.1372 -44.1372 -22.2668 -22.2668 -22.1826 -22.1826 -22.0634 -22.0634
    -7.4907  -7.4907  -6.8689  -6.8689  -5.9961  -5.9961  -4.8218  -4.8218
    -4.3340  -4.3340   0.7119   0.7119   1.2335   1.2335   1.3175   1.3175
     2.2418   2.2418   2.3784   2.3784   2.6633   2.6633   3.2289   3.2289
     3.3230   3.3230   3.8106   3.8106   3.9848   3.9848   4.1685   4.1685
     5.1065   5.1065   5.6584   5.6584   6.0910   6.0910   6.6931   6.6931
     7.3579   7.3580

          k = 0.0000-0.3869 0.0000 ( 36477 PWs)   bands (ev):

   -44.1376 -44.1376 -22.2688 -22.2688 -22.1728 -22.1728 -22.0646 -22.0645
    -7.7492  -7.3228  -7.1110  -6.8570  -6.4390  -5.3975  -5.0221  -4.8735
    -4.7804  -3.8512   0.4607   0.7801   1.0519   1.2189   1.5619   1.6737
     2.3586   2.3860   2.7377   2.7499   2.9628   3.0817   3.0853   3.1060
     3.4908   3.6442   3.6740   3.9514   3.9609   4.0164   4.2051   4.6564
     4.8689   5.4018   5.7787   5.8049   5.9527   6.1360   6.4421   6.6685
     6.9657   7.1742

          k = 0.0000-0.3869 0.1485 ( 36452 PWs)   bands (ev):

   -44.1376 -44.1376 -22.2688 -22.2688 -22.1728 -22.1728 -22.0646 -22.0646
    -7.7125  -7.4470  -7.0129  -6.8717  -6.3404  -5.6885  -4.9149  -4.8027
    -4.6578  -3.9647   0.5059   0.9702   1.0173   1.1612   1.2147   1.9911
     2.1713   2.3883   2.6018   2.8582   2.9543   2.9916   3.0569   3.3243
     3.5786   3.6757   3.7518   3.9111   4.0284   4.0601   4.1334   4.6617
     4.7819   4.9910   5.8674   6.0094   6.0651   6.0802   6.5373   6.6825
     6.7948   7.1402

          k = 0.0000-0.3869-0.2971 ( 36454 PWs)   bands (ev):

   -44.1376 -44.1376 -22.2688 -22.2688 -22.1728 -22.1728 -22.0646 -22.0646
    -7.6063  -7.6063  -6.9192  -6.9192  -6.0654  -6.0654  -4.8553  -4.8553
    -4.2653  -4.2653   0.7094   0.7094   1.1501   1.1501   1.4284   1.4284
     2.4737   2.4738   2.6944   2.6944   2.9242   2.9242   3.1092   3.1092
     3.7997   3.7997   3.9435   3.9435   3.9924   3.9924   4.3835   4.3835
     4.6916   4.6916   5.9401   5.9401   6.3085   6.3085   6.4140   6.4140
     7.0107   7.0107

          k =-2.0325 0.0000 0.0000 ( 36452 PWs)   bands (ev):

   -44.1376 -44.1376 -22.2688 -22.2688 -22.1728 -22.1728 -22.0646 -22.0645
    -7.7445  -7.3220  -7.1069  -6.8605  -6.4489  -5.3982  -5.0273  -4.8730
    -4.7783  -3.8518   0.4659   0.7856   1.1687   1.2067   1.5714   1.7156
     2.3604   2.3884   2.7366   2.7583   2.9436   2.9612   2.9965   3.1084
     3.6056   3.6564   3.6625   3.8303   3.9459   3.9567   4.2050   4.6566
     4.8593   5.3930   5.8073   5.8124   5.9808   6.1493   6.4614   6.6181
     6.9658   7.1679

          k =-2.0325 0.0000 0.1485 ( 36456 PWs)   bands (ev):

   -44.1376 -44.1376 -22.2688 -22.2688 -22.1728 -22.1728 -22.0646 -22.0646
    -7.7079  -7.4439  -7.0133  -6.8757  -6.3474  -5.6895  -4.9217  -4.8016
    -4.6554  -3.9648   0.5085   0.9806   1.0441   1.2122   1.2732   2.0007
     2.1880   2.3902   2.6047   2.8613   2.8856   2.9405   2.9534   3.3611
     3.5585   3.7301   3.7415   3.9014   3.9523   4.0065   4.1308   4.6619
     4.7764   4.9904   5.8900   6.0144   6.0777   6.0785   6.5123   6.6886
     6.7957   7.1301

          k =-2.0325 0.0000-0.2971 ( 36460 PWs)   bands (ev):

   -44.1376 -44.1376 -22.2688 -22.2688 -22.1728 -22.1728 -22.0646 -22.0646
    -7.6020  -7.6020  -6.9228  -6.9228  -6.0682  -6.0682  -4.8580  -4.8580
    -4.2642  -4.2642   0.7103   0.7103   1.2232   1.2232   1.4373   1.4373
     2.4761   2.4761   2.6694   2.6694   2.9251   2.9251   3.0333   3.0333
     3.8301   3.8301   3.9348   3.9348   3.9364   3.9364   4.3769   4.3769
     4.6905   4.6905   5.9318   5.9318   6.3176   6.3176   6.4165   6.4165
     6.9982   6.9982

     the Fermi energy is     5.4671 ev

!    total energy              =   -4240.95221115 Ry

     total all-electron energy =   -150287.645906 Ry
     estimated scf accuracy    <          1.5E-11 Ry
     smearing contrib. (-TS)   =      -0.00000461 Ry
     internal energy E=F+TS    =   -4240.95220654 Ry

     The total energy is F=E-TS. E is the sum of the following terms:
     one-electron contribution =    -166.33176389 Ry
     hartree contribution      =     116.64528836 Ry
     xc contribution           =    -201.47155671 Ry
     ewald contribution        =    -222.27836131 Ry
     one-center paw contrib.   =   -3767.51581299 Ry

     convergence has been achieved in  14 iterations

     Forces acting on atoms (cartesian axes, Ry/au):

     atom    1 type  1   force =     0.00000000   -0.00613197    0.00000000
     atom    2 type  1   force =    -0.00000000    0.00613197    0.00000000
     atom    3 type  2   force =     0.00000000    0.00016401    0.00000000
     atom    4 type  2   force =     0.00000000   -0.00016401    0.00000000
     atom    5 type  2   force =     0.00000000    0.00132712    0.00047968
     atom    6 type  2   force =     0.00000000   -0.00132712   -0.00047968
     atom    7 type  2   force =    -0.00000000    0.00132712   -0.00047968
     atom    8 type  2   force =     0.00000000   -0.00132712    0.00047968
     atom    9 type  2   force =     0.00000000    0.00810107    0.00790905
     atom   10 type  2   force =     0.00000000   -0.00810107   -0.00790905
     atom   11 type  2   force =     0.00000000    0.00810107   -0.00790905
     atom   12 type  2   force =     0.00000000   -0.00810107    0.00790905

     Total force =     0.024412     Total SCF correction =     0.000007


     Computing stress (Cartesian axis) and pressure

          total   stress  (Ry/bohr**3)                   (kbar)     P=       -1.94
  -0.00001077  -0.00000000   0.00000000           -1.58       -0.00        0.00
   0.00000000  -0.00001132   0.00000000            0.00       -1.67        0.00
   0.00000000   0.00000000  -0.00001752            0.00        0.00       -2.58

 
     init_run     :     19.92s CPU     20.42s WALL (       1 calls)
     electrons    :    851.74s CPU    861.13s WALL (       1 calls)
     forces       :      6.74s CPU      6.95s WALL (       1 calls)
     stress       :     47.94s CPU     48.59s WALL (       1 calls)

     Called by init_run:
     wfcinit      :     15.16s CPU     15.34s WALL (       1 calls)
     potinit      :      1.50s CPU      1.56s WALL (       1 calls)
     hinit0       :      1.78s CPU      1.83s WALL (       1 calls)

     Called by electrons:
     c_bands      :    711.80s CPU    714.87s WALL (      15 calls)
     sum_band     :    118.46s CPU    121.89s WALL (      15 calls)
     v_of_rho     :      4.75s CPU      4.98s WALL (      15 calls)
     newd         :     12.13s CPU     14.96s WALL (      15 calls)
     PAW_pot      :      5.01s CPU      5.02s WALL (      15 calls)
     mix_rho      :      0.68s CPU      0.71s WALL (      15 calls)

     Called by c_bands:
     init_us_2    :     10.34s CPU     10.39s WALL (    2079 calls)
     cegterg      :    648.45s CPU    651.02s WALL (     945 calls)

     Called by *egterg:
     cdiaghg      :     25.22s CPU     25.28s WALL (    7266 calls)
     h_psi        :    496.26s CPU    498.75s WALL (    7392 calls)
     s_psi        :     41.80s CPU     41.86s WALL (    7392 calls)
     g_psi        :      1.80s CPU      1.80s WALL (    6384 calls)

     Called by h_psi:
     h_psi:calbec :     35.47s CPU     35.53s WALL (    7392 calls)
     vloc_psi     :    416.15s CPU    418.43s WALL (    7392 calls)
     add_vuspsi   :     41.71s CPU     41.78s WALL (    7392 calls)

     General routines
     calbec       :     46.48s CPU     46.57s WALL (    8652 calls)
     fft          :      2.97s CPU      3.08s WALL (     219 calls)
     ffts         :      0.07s CPU      0.07s WALL (      30 calls)
     fftw         :    376.68s CPU    378.68s WALL (  360838 calls)
     interpolate  :      0.26s CPU      0.26s WALL (      15 calls)
 
     Parallel routines
 
     PWSCF        :  15m26.59s CPU  15m37.41s WALL

 
   This run was terminated on:  15:32:55  19Nov2021            

=------------------------------------------------------------------------------=
   JOB DONE.
=------------------------------------------------------------------------------=
