
     Program PWSCF v.6.8 starts on 19Nov2021 at 15:17: 6 

     This program is part of the open-source Quantum ESPRESSO suite
     for quantum simulation of materials; please cite
         "P. Giannozzi et al., J. Phys.:Condens. Matter 21 395502 (2009);
         "P. Giannozzi et al., J. Phys.:Condens. Matter 29 465901 (2017);
         "P. Giannozzi et al., J. Chem. Phys. 152 154105 (2020);
          URL http://www.quantum-espresso.org", 
     in publications or presentations arising from this work. More details at
     http://www.quantum-espresso.org/quote

     Parallel version (MPI), running on    10 processors

     MPI processes distributed on     1 nodes
     R & G space division:  proc/nbgrp/npool/nimage =      10
     71885 MiB available memory on the printing compute node when the environment starts
 
     Waiting for input...
     Reading input from standard input

     Current dimensions of program PWSCF are:
     Max number of different atomic species (ntypx) = 10
     Max number of k-points (npk) =  40000
     Max angular momentum in pseudopotentials (lmaxx) =  4
     file Zr.pbe-spn-kjpaw_psl.1.0.0.UPF: wavefunction(s)  4S 4P renormalized
     file Te.pbe-n-kjpaw_psl.1.0.0.UPF: wavefunction(s)  5S 5P renormalized
     Message from routine setup:
     using ibrav=0 with symmetry is DISCOURAGED, use correct ibrav instead

     Subspace diagonalization in iterative solution of the eigenvalue problem:
     a serial algorithm will be used

 
     Parallelization info
     --------------------
     sticks:   dense  smooth     PW     G-vecs:    dense   smooth      PW
     Min         734     293     87               115340    29174    4753
     Max         735     295     88               115345    29176    4760
     Sum        7345    2937    873              1153415   291749   47557
 
     Using Slab Decomposition
 


     bravais-lattice index     =            0
     lattice parameter (alat)  =      15.5510  a.u.
     unit-cell volume          =    3018.5011 (a.u.)^3
     number of atoms/cell      =           12
     number of atomic types    =            2
     number of electrons       =        84.00
     number of Kohn-Sham states=           50
     kinetic-energy cutoff     =      80.0000  Ry
     charge density cutoff     =     800.0000  Ry
     scf convergence threshold =      1.0E-10
     mixing beta               =       0.7000
     number of iterations used =            8  plain     mixing
     Exchange-correlation= SLA  PW   PBX  PBC
                           (   1   4   3   4   0   0   0)

     celldm(1)=  15.551040  celldm(2)=   0.000000  celldm(3)=   0.000000
     celldm(4)=   0.000000  celldm(5)=   0.000000  celldm(6)=   0.000000

     crystal axes: (cart. coord. in units of alat)
               a(1) = (   0.246007  -0.969268   0.000000 )  
               a(2) = (   0.246007   0.969268   0.000000 )  
               a(3) = (   0.000000   0.000000   1.683031 )  

     reciprocal axes: (cart. coord. in units 2 pi/alat)
               b(1) = (  2.032465 -0.515853  0.000000 )  
               b(2) = (  2.032465  0.515853  0.000000 )  
               b(3) = (  0.000000  0.000000  0.594166 )  


     PseudoPot. # 1 for Zr read from file:
     pseudo/Zr.pbe-spn-kjpaw_psl.1.0.0.UPF
     MD5 check sum: 02112c41713a0468aff2bb39ef194e36
     Pseudo is Projector augmented-wave + core cor, Zval = 12.0
     Generated using &quot;atomic&quot; code by A. Dal Corso  v.6.2.2
     Shape of augmentation charge: PSQ
     Using radial grid of 1225 points,  6 beta functions with: 
                l(1) =   0
                l(2) =   0
                l(3) =   1
                l(4) =   1
                l(5) =   2
                l(6) =   2
     Q(r) pseudized with 0 coefficients 


     PseudoPot. # 2 for Te read from file:
     pseudo/Te.pbe-n-kjpaw_psl.1.0.0.UPF
     MD5 check sum: 66247bff2bd9dbf220fbb0bf5ab56e9d
     Pseudo is Projector augmented-wave + core cor, Zval =  6.0
     Generated using &quot;atomic&quot; code by A. Dal Corso  v.6.3
     Shape of augmentation charge: PSQ
     Using radial grid of 1245 points,  6 beta functions with: 
                l(1) =   0
                l(2) =   0
                l(3) =   1
                l(4) =   1
                l(5) =   2
                l(6) =   2
     Q(r) pseudized with 0 coefficients 


     atomic species   valence    mass     pseudopotential
        Zr            12.00    91.22000     Zr( 1.00)
        Te             6.00   127.60000     Te( 1.00)

      8 Sym. Ops., with inversion, found ( 4 have fractional translation)



   Cartesian axes

     site n.     atom                  positions (alat units)
         1           Zr  tau(   1) = (   0.0000000   0.6058687   0.4207578  )
         2           Zr  tau(   2) = (   0.2460067   0.3633994   1.2622733  )
         3           Te  tau(   3) = (   0.2460067   0.3342536   0.4207578  )
         4           Te  tau(   4) = (   0.0000000   0.6350145   1.2622733  )
         5           Te  tau(   5) = (   0.2460067   0.8097069   0.2519822  )
         6           Te  tau(   6) = (   0.0000000   0.1595613   1.4310489  )
         7           Te  tau(   7) = (   0.2460067   0.8097069   0.5895333  )
         8           Te  tau(   8) = (   0.0000000   0.1595613   1.0934977  )
         9           Te  tau(   9) = (   0.0000000   0.4144342   0.7304458  )
        10           Te  tau(  10) = (   0.2460067   0.5548339   0.9525853  )
        11           Te  tau(  11) = (   0.0000000   0.4144342   0.1110697  )
        12           Te  tau(  12) = (   0.2460067   0.5548339   1.5719613  )

     number of k points=    63  Methfessel-Paxton smearing, width (Ry)=  0.0030
                       cart. coord. in units 2pi/alat
        k(    1) = (   0.0000000   0.0000000   0.0000000), wk =   0.0078125
        k(    2) = (   0.0000000   0.0000000   0.1485415), wk =   0.0156250
        k(    3) = (   0.0000000   0.0000000  -0.2970830), wk =   0.0078125
        k(    4) = (   0.2540581   0.0644816   0.0000000), wk =   0.0312500
        k(    5) = (   0.2540581   0.0644816   0.1485415), wk =   0.0625000
        k(    6) = (   0.2540581   0.0644816  -0.2970830), wk =   0.0312500
        k(    7) = (   0.5081162   0.1289633   0.0000000), wk =   0.0312500
        k(    8) = (   0.5081162   0.1289633   0.1485415), wk =   0.0625000
        k(    9) = (   0.5081162   0.1289633  -0.2970830), wk =   0.0312500
        k(   10) = (   0.7621743   0.1934449   0.0000000), wk =   0.0312500
        k(   11) = (   0.7621743   0.1934449   0.1485415), wk =   0.0625000
        k(   12) = (   0.7621743   0.1934449  -0.2970830), wk =   0.0312500
        k(   13) = (  -1.0162324  -0.2579266   0.0000000), wk =   0.0156250
        k(   14) = (  -1.0162324  -0.2579266   0.1485415), wk =   0.0312500
        k(   15) = (  -1.0162324  -0.2579266  -0.2970830), wk =   0.0156250
        k(   16) = (   0.5081162   0.0000000   0.0000000), wk =   0.0156250
        k(   17) = (   0.5081162   0.0000000   0.1485415), wk =   0.0312500
        k(   18) = (   0.5081162   0.0000000  -0.2970830), wk =   0.0156250
        k(   19) = (   0.7621743   0.0644816   0.0000000), wk =   0.0312500
        k(   20) = (   0.7621743   0.0644816   0.1485415), wk =   0.0625000
        k(   21) = (   0.7621743   0.0644816  -0.2970830), wk =   0.0312500
        k(   22) = (   1.0162324   0.1289633   0.0000000), wk =   0.0312500
        k(   23) = (   1.0162324   0.1289633   0.1485415), wk =   0.0625000
        k(   24) = (   1.0162324   0.1289633  -0.2970830), wk =   0.0312500
        k(   25) = (  -0.7621743  -0.3224082   0.0000000), wk =   0.0312500
        k(   26) = (  -0.7621743  -0.3224082   0.1485415), wk =   0.0625000
        k(   27) = (  -0.7621743  -0.3224082  -0.2970830), wk =   0.0312500
        k(   28) = (  -0.5081162  -0.2579266   0.0000000), wk =   0.0312500
        k(   29) = (  -0.5081162  -0.2579266   0.1485415), wk =   0.0625000
        k(   30) = (  -0.5081162  -0.2579266  -0.2970830), wk =   0.0312500
        k(   31) = (  -0.2540581  -0.1934449   0.0000000), wk =   0.0312500
        k(   32) = (  -0.2540581  -0.1934449   0.1485415), wk =   0.0625000
        k(   33) = (  -0.2540581  -0.1934449  -0.2970830), wk =   0.0312500
        k(   34) = (   0.0000000  -0.1289633   0.0000000), wk =   0.0156250
        k(   35) = (   0.0000000  -0.1289633   0.1485415), wk =   0.0312500
        k(   36) = (   0.0000000  -0.1289633  -0.2970830), wk =   0.0156250
        k(   37) = (   1.0162324   0.0000000   0.0000000), wk =   0.0156250
        k(   38) = (   1.0162324   0.0000000   0.1485415), wk =   0.0312500
        k(   39) = (   1.0162324   0.0000000  -0.2970830), wk =   0.0156250
        k(   40) = (   1.2702905   0.0644816   0.0000000), wk =   0.0312500
        k(   41) = (   1.2702905   0.0644816   0.1485415), wk =   0.0625000
        k(   42) = (   1.2702905   0.0644816  -0.2970830), wk =   0.0312500
        k(   43) = (  -0.5081162  -0.3868899   0.0000000), wk =   0.0312500
        k(   44) = (  -0.5081162  -0.3868899   0.1485415), wk =   0.0625000
        k(   45) = (  -0.5081162  -0.3868899  -0.2970830), wk =   0.0312500
        k(   46) = (  -0.2540581  -0.3224082   0.0000000), wk =   0.0312500
        k(   47) = (  -0.2540581  -0.3224082   0.1485415), wk =   0.0625000
        k(   48) = (  -0.2540581  -0.3224082  -0.2970830), wk =   0.0312500
        k(   49) = (   0.0000000  -0.2579266   0.0000000), wk =   0.0156250
        k(   50) = (   0.0000000  -0.2579266   0.1485415), wk =   0.0312500
        k(   51) = (   0.0000000  -0.2579266  -0.2970830), wk =   0.0156250
        k(   52) = (   1.5243485   0.0000000   0.0000000), wk =   0.0156250
        k(   53) = (   1.5243485   0.0000000   0.1485415), wk =   0.0312500
        k(   54) = (   1.5243485   0.0000000  -0.2970830), wk =   0.0156250
        k(   55) = (  -0.2540581  -0.4513715   0.0000000), wk =   0.0312500
        k(   56) = (  -0.2540581  -0.4513715   0.1485415), wk =   0.0625000
        k(   57) = (  -0.2540581  -0.4513715  -0.2970830), wk =   0.0312500
        k(   58) = (   0.0000000  -0.3868899   0.0000000), wk =   0.0156250
        k(   59) = (   0.0000000  -0.3868899   0.1485415), wk =   0.0312500
        k(   60) = (   0.0000000  -0.3868899  -0.2970830), wk =   0.0156250
        k(   61) = (  -2.0324647   0.0000000   0.0000000), wk =   0.0078125
        k(   62) = (  -2.0324647   0.0000000   0.1485415), wk =   0.0156250
        k(   63) = (  -2.0324647   0.0000000  -0.2970830), wk =   0.0078125

     Dense  grid:  1153415 G-vectors     FFT dimensions: ( 144, 144, 240)

     Smooth grid:   291749 G-vectors     FFT dimensions: (  90,  90, 150)

     Estimated max dynamical RAM per process >     657.19 MB

     Estimated total dynamical RAM >       6.42 GB

     Initial potential from superposition of free atoms

     starting charge   83.99353, renormalised to   84.00000
     Starting wfcs are   66 randomized atomic wfcs
     Checking if some PAW data can be deallocated... 

     total cpu time spent up to now is       21.2 secs

     Self-consistent Calculation

     iteration #  1     ecut=    80.00 Ry     beta= 0.70
     Davidson diagonalization with overlap
     ethr =  1.00E-02,  avg # of iterations =  2.0

     Threshold (ethr) on eigenvalues was too large:
     Diagonalizing with lowered threshold

     Davidson diagonalization with overlap
     ethr =  4.13E-04,  avg # of iterations =  4.0

     total cpu time spent up to now is      102.0 secs

     total energy              =   -4240.73200272 Ry
     estimated scf accuracy    <       0.43383128 Ry

     iteration #  2     ecut=    80.00 Ry     beta= 0.70
     Davidson diagonalization with overlap
     ethr =  5.16E-04,  avg # of iterations =  7.7

     total cpu time spent up to now is      161.5 secs

     total energy              =   -4240.63777814 Ry
     estimated scf accuracy    <       2.06454138 Ry

     iteration #  3     ecut=    80.00 Ry     beta= 0.70
     Davidson diagonalization with overlap
     ethr =  5.16E-04,  avg # of iterations =  5.2

     total cpu time spent up to now is      211.6 secs

     WARNING: integrated charge=    83.99702597, expected=    84.00000000

     total energy              =   -4240.93831843 Ry
     estimated scf accuracy    <       0.01143348 Ry

     iteration #  4     ecut=    80.00 Ry     beta= 0.70
     Davidson diagonalization with overlap
     c_bands:  1 eigenvalues not converged
     c_bands:  2 eigenvalues not converged
     c_bands:  1 eigenvalues not converged
     c_bands:  1 eigenvalues not converged
     c_bands:  1 eigenvalues not converged
     c_bands:  2 eigenvalues not converged
     c_bands:  1 eigenvalues not converged
     c_bands:  1 eigenvalues not converged
     c_bands:  2 eigenvalues not converged
     c_bands:  1 eigenvalues not converged
     c_bands:  1 eigenvalues not converged
     c_bands:  2 eigenvalues not converged
     c_bands:  2 eigenvalues not converged
     c_bands:  2 eigenvalues not converged
     c_bands:  1 eigenvalues not converged
     c_bands:  4 eigenvalues not converged
     c_bands:  1 eigenvalues not converged
     c_bands:  1 eigenvalues not converged
     c_bands:  1 eigenvalues not converged
     c_bands:  1 eigenvalues not converged
     c_bands:  1 eigenvalues not converged
     ethr =  1.36E-05,  avg # of iterations = 17.7

     total cpu time spent up to now is      309.1 secs

     WARNING: integrated charge=    83.99774333, expected=    84.00000000

     total energy              =   -4240.95003672 Ry
     estimated scf accuracy    <       0.07440169 Ry

     iteration #  5     ecut=    80.00 Ry     beta= 0.70
     Davidson diagonalization with overlap
     ethr =  1.36E-05,  avg # of iterations =  7.0

     total cpu time spent up to now is      358.6 secs

     WARNING: integrated charge=    83.99810596, expected=    84.00000000

     total energy              =   -4240.95260331 Ry
     estimated scf accuracy    <       0.01450531 Ry

     iteration #  6     ecut=    80.00 Ry     beta= 0.70
     Davidson diagonalization with overlap
     ethr =  1.36E-05,  avg # of iterations =  3.6

     total cpu time spent up to now is      399.0 secs

     WARNING: integrated charge=    83.99554708, expected=    84.00000000

     total energy              =   -4240.95575783 Ry
     estimated scf accuracy    <       0.00171288 Ry

     iteration #  7     ecut=    80.00 Ry     beta= 0.70
     Davidson diagonalization with overlap
     c_bands:  2 eigenvalues not converged
     c_bands:  1 eigenvalues not converged
     c_bands:  1 eigenvalues not converged
     ethr =  2.04E-06,  avg # of iterations = 12.2

     total cpu time spent up to now is      468.1 secs

     WARNING: integrated charge=    83.99711691, expected=    84.00000000

     total energy              =   -4240.95390190 Ry
     estimated scf accuracy    <       0.00169760 Ry

     iteration #  8     ecut=    80.00 Ry     beta= 0.70
     Davidson diagonalization with overlap
     c_bands:  1 eigenvalues not converged
     c_bands:  1 eigenvalues not converged
     ethr =  2.02E-06,  avg # of iterations =  2.7

     total cpu time spent up to now is      504.7 secs

     WARNING: integrated charge=    83.99356362, expected=    84.00000000

     total energy              =   -4240.95698252 Ry
     estimated scf accuracy    <       0.00027891 Ry

     iteration #  9     ecut=    80.00 Ry     beta= 0.70
     Davidson diagonalization with overlap
     ethr =  3.32E-07,  avg # of iterations =  6.6

     total cpu time spent up to now is      554.7 secs

     WARNING: integrated charge=    83.99395935, expected=    84.00000000

     total energy              =   -4240.95663605 Ry
     estimated scf accuracy    <       0.00003846 Ry

     iteration # 10     ecut=    80.00 Ry     beta= 0.70
     Davidson diagonalization with overlap
     ethr =  4.58E-08,  avg # of iterations =  2.8

     total cpu time spent up to now is      592.6 secs

     WARNING: integrated charge=    83.99389452, expected=    84.00000000

     total energy              =   -4240.95669916 Ry
     estimated scf accuracy    <       0.00000885 Ry

     iteration # 11     ecut=    80.00 Ry     beta= 0.70
     Davidson diagonalization with overlap
     ethr =  1.05E-08,  avg # of iterations =  6.2

     total cpu time spent up to now is      641.5 secs

     WARNING: integrated charge=    83.99341989, expected=    84.00000000

     total energy              =   -4240.95676084 Ry
     estimated scf accuracy    <       0.00000150 Ry

     iteration # 12     ecut=    80.00 Ry     beta= 0.70
     Davidson diagonalization with overlap
     ethr =  1.79E-09,  avg # of iterations =  3.8

     total cpu time spent up to now is      682.3 secs

     WARNING: integrated charge=    83.99335964, expected=    84.00000000

     total energy              =   -4240.95674354 Ry
     estimated scf accuracy    <       0.00000005 Ry

     iteration # 13     ecut=    80.00 Ry     beta= 0.70
     Davidson diagonalization with overlap
     ethr =  5.58E-11,  avg # of iterations =  9.2

     total cpu time spent up to now is      748.1 secs

     WARNING: integrated charge=    83.99334235, expected=    84.00000000

     total energy              =   -4240.95674161 Ry
     estimated scf accuracy    <       0.00000005 Ry

     iteration # 14     ecut=    80.00 Ry     beta= 0.70
     Davidson diagonalization with overlap
     ethr =  5.57E-11,  avg # of iterations =  1.7

     total cpu time spent up to now is      783.1 secs

     WARNING: integrated charge=    83.99332445, expected=    84.00000000

     total energy              =   -4240.95674458 Ry
     estimated scf accuracy    <       0.00000001 Ry

     iteration # 15     ecut=    80.00 Ry     beta= 0.70
     Davidson diagonalization with overlap
     ethr =  1.32E-11,  avg # of iterations =  6.1

     total cpu time spent up to now is      829.1 secs

     WARNING: integrated charge=    83.99332382, expected=    84.00000000

     total energy              =   -4240.95674668 Ry
     estimated scf accuracy    <          2.2E-10 Ry

     iteration # 16     ecut=    80.00 Ry     beta= 0.70
     Davidson diagonalization with overlap
     ethr =  2.58E-13,  avg # of iterations =  8.2

     total cpu time spent up to now is      888.3 secs

     WARNING: integrated charge=    83.99332303, expected=    84.00000000

     total energy              =   -4240.95674633 Ry
     estimated scf accuracy    <          6.1E-10 Ry

     iteration # 17     ecut=    80.00 Ry     beta= 0.70
     Davidson diagonalization with overlap
     ethr =  2.58E-13,  avg # of iterations =  2.1

     total cpu time spent up to now is      924.8 secs

     WARNING: integrated charge=    83.99332099, expected=    84.00000000

     total energy              =   -4240.95674607 Ry
     estimated scf accuracy    <          2.6E-10 Ry

     iteration # 18     ecut=    80.00 Ry     beta= 0.70
     Davidson diagonalization with overlap
     ethr =  2.58E-13,  avg # of iterations =  4.9

     total cpu time spent up to now is      966.2 secs

     End of self-consistent calculation

          k = 0.0000 0.0000 0.0000 ( 36359 PWs)   bands (ev):

   -44.1344 -44.1344 -22.2611 -22.2611 -22.1675 -22.1675 -22.0641 -22.0640
    -7.8535  -7.4790  -7.1300  -6.8591  -6.3185  -5.4088  -4.9388  -4.8407
    -4.7894  -3.8377   0.3450   0.7479   0.7676   1.1185   1.4571   1.5301
     2.2739   2.3386   2.5800   2.7351   2.9483   3.0101   3.2451   3.4130
     3.6921   3.7890   3.9672   4.0680   4.2431   4.3375   4.3555   4.6738
     4.8570   5.4940   5.6353   5.8234   5.8411   5.9493   6.1644   6.8299
     6.9829   7.2717

          k = 0.0000 0.0000 0.1485 ( 36415 PWs)   bands (ev):

   -44.1344 -44.1344 -22.2611 -22.2611 -22.1675 -22.1675 -22.0641 -22.0640
    -7.8186  -7.5749  -7.0438  -6.8764  -6.2407  -5.6682  -4.8415  -4.7981
    -4.6504  -3.9535   0.4101   0.8028   0.8999   1.0100   1.0776   1.9163
     2.0631   2.3014   2.4947   2.8066   2.9338   3.1176   3.3894   3.4004
     3.7019   3.8530   3.9490   4.0698   4.1811   4.3573   4.3733   4.6761
     4.7780   4.9904   5.8056   5.9510   5.9551   6.0204   6.5160   6.6334
     6.8050   7.1971

          k = 0.0000 0.0000-0.2971 ( 36410 PWs)   bands (ev):

   -44.1344 -44.1344 -22.2611 -22.2611 -22.1675 -22.1675 -22.0641 -22.0641
    -7.7186  -7.7186  -6.9349  -6.9349  -6.0088  -6.0088  -4.8192  -4.8192
    -4.2569  -4.2569   0.6246   0.6246   0.9238   0.9238   1.3603   1.3603
     2.3802   2.3802   2.6418   2.6418   2.8877   2.8877   3.4952   3.4952
     3.8905   3.8905   4.0159   4.0159   4.3475   4.3475   4.3901   4.3901
     4.6982   4.6982   5.9360   5.9360   6.2236   6.2236   6.4195   6.4195
     6.9934   6.9934

          k = 0.2541 0.0645 0.0000 ( 36396 PWs)   bands (ev):

   -44.1340 -44.1340 -22.2592 -22.2592 -22.1773 -22.1773 -22.0630 -22.0629
    -7.7355  -7.3664  -7.0588  -6.8115  -6.2569  -5.3640  -4.9544  -4.7978
    -4.7457  -3.9904   0.4310   0.8743   0.8968   1.2355   1.2743   1.4062
     1.7969   1.8548   2.0174   2.5664   2.5918   3.1566   3.3157   3.7217
     3.7495   3.7542   3.8042   3.8232   4.0254   4.2468   4.2888   4.2958
     4.4898   4.5807   5.8149   5.9784   6.2208   6.5822   6.5932   6.7567
     7.0105   7.1750

          k = 0.2541 0.0645 0.1485 ( 36423 PWs)   bands (ev):

   -44.1340 -44.1340 -22.2592 -22.2592 -22.1773 -22.1773 -22.0630 -22.0629
    -7.7013  -7.4621  -6.9778  -6.8271  -6.1769  -5.6145  -4.8164  -4.7563
    -4.6696  -4.0827   0.4840   0.9285   0.9408   0.9611   1.1851   1.4418
     1.7786   2.1001   2.2512   2.5493   2.5761   2.9491   3.3359   3.3503
     3.5669   3.7684   3.9297   3.9451   4.0288   4.1512   4.3223   4.3407
     4.6818   4.8611   5.8401   5.9266   6.1722   6.2632   6.4175   6.7378
     7.2243   7.2981

          k = 0.2541 0.0645-0.2971 ( 36436 PWs)   bands (ev):

   -44.1340 -44.1340 -22.2592 -22.2592 -22.1773 -22.1773 -22.0629 -22.0629
    -7.6032  -7.6032  -6.8795  -6.8795  -5.9453  -5.9453  -4.7824  -4.7824
    -4.3337  -4.3337   0.6568   0.6568   1.0265   1.0265   1.1743   1.1743
     2.1308   2.1308   2.4747   2.4747   2.6716   2.6716   3.1856   3.1856
     3.6305   3.6305   3.9383   3.9383   4.1068   4.1068   4.3476   4.3476
     5.0354   5.0354   5.7766   5.7766   6.1402   6.1402   6.4468   6.4468
     7.4080   7.4080

          k = 0.5081 0.1290 0.0000 ( 36499 PWs)   bands (ev):

   -44.1331 -44.1331 -22.2545 -22.2545 -22.2007 -22.2007 -22.0602 -22.0601
    -7.3975  -7.0389  -6.8904  -6.6867  -6.0678  -5.2630  -5.0631  -4.6862
    -4.6376  -4.4461   0.4158   0.5988   0.6414   1.2043   1.2300   1.4245
     1.6589   1.6954   1.9712   2.1052   2.1665   2.2497   2.4225   3.3748
     3.4578   3.5077   3.5315   3.5906   3.7716   3.8765   3.9259   4.1779
     4.4225   5.0671   5.5770   6.0507   6.0932   6.5873   6.6053   6.9474
     7.4453   7.5644

          k = 0.5081 0.1290 0.1485 ( 36476 PWs)   bands (ev):

   -44.1331 -44.1331 -22.2545 -22.2545 -22.2007 -22.2007 -22.0601 -22.0601
    -7.3656  -7.1412  -6.8136  -6.6988  -5.9870  -5.4849  -4.8923  -4.6676
    -4.6500  -4.4741   0.4160   0.6379   0.7585   1.0061   1.2557   1.3727
     1.4382   1.5636   2.0201   2.0963   2.3458   2.4607   2.8031   3.3970
     3.4218   3.4606   3.5239   3.5875   3.7078   3.7504   3.8488   4.2311
     4.3188   4.5073   6.1379   6.1760   6.3166   6.5890   6.6483   6.8123
     7.2834   7.5078

          k = 0.5081 0.1290-0.2971 ( 36466 PWs)   bands (ev):

   -44.1331 -44.1331 -22.2545 -22.2545 -22.2007 -22.2007 -22.0601 -22.0601
    -7.2745  -7.2745  -6.7382  -6.7382  -5.7709  -5.7709  -4.7455  -4.7455
    -4.5572  -4.5572   0.5183   0.5183   1.0287   1.0287   1.1010   1.1010
     1.4181   1.4181   2.0591   2.0591   2.7080   2.7080   3.1599   3.1599
     3.4004   3.4004   3.5539   3.5539   3.7118   3.7118   3.8337   3.8337
     4.3119   4.3119   6.3799   6.3799   6.5594   6.5594   6.8300   6.8300
     7.1390   7.1390

          k = 0.7622 0.1934 0.0000 ( 36521 PWs)   bands (ev):

   -44.1322 -44.1322 -22.2497 -22.2497 -22.2241 -22.2241 -22.0573 -22.0573
    -6.9335  -6.7364  -6.5334  -6.4834  -5.7857  -5.3893  -5.2162  -5.1091
    -4.5620  -4.5257   0.0140   0.0394   0.5081   1.0132   1.0360   1.2700
     1.4831   1.6039   1.9672   2.0759   2.2473   2.3609   2.4167   2.7893
     2.8884   3.2656   3.3384   3.4468   3.5958   3.6783   3.7085   3.8000
     3.8459   4.5630   5.9049   6.3209   6.3797   6.8406   6.8496   6.9396
     7.3042   7.6168

          k = 0.7622 0.1934 0.1485 ( 36503 PWs)   bands (ev):

   -44.1322 -44.1322 -22.2497 -22.2497 -22.2241 -22.2241 -22.0573 -22.0573
    -6.9107  -6.7743  -6.5236  -6.4895  -5.7266  -5.4512  -5.1960  -5.1230
    -4.5533  -4.5283   0.0163   0.2103   0.3819   0.9055   1.0115   1.2302
     1.4958   1.6265   1.8961   2.0612   2.1302   2.6224   2.6902   2.8474
     2.8880   3.0868   3.2715   3.3900   3.5268   3.6225   3.6557   3.9324
     3.9740   4.5330   5.6739   6.3467   6.6503   6.7446   6.9117   6.9776
     7.0814   7.5798

          k = 0.7622 0.1934-0.2971 ( 36522 PWs)   bands (ev):

   -44.1322 -44.1322 -22.2497 -22.2497 -22.2241 -22.2241 -22.0573 -22.0573
    -6.8493  -6.8493  -6.5052  -6.5052  -5.5893  -5.5893  -5.1575  -5.1575
    -4.5378  -4.5378   0.1564   0.1564   0.5525   0.5525   1.0830   1.0830
     1.5680   1.5680   2.0140   2.0140   2.3776   2.3776   2.8190   2.8190
     2.9889   2.9889   3.3243   3.3243   3.5946   3.5946   3.8821   3.8821
     4.0929   4.0929   6.1446   6.1446   6.4489   6.4489   6.9772   6.9772
     7.4281   7.4281

          k =-1.0162-0.2579 0.0000 ( 36506 PWs)   bands (ev):

   -44.1319 -44.1318 -22.2475 -22.2475 -22.2338 -22.2338 -22.0561 -22.0561
    -6.7124  -6.6923  -5.9906  -5.9795  -5.9366  -5.9292  -5.3390  -5.3384
    -4.5048  -4.4795  -0.0183   0.0044   0.3036   0.3251   1.0127   1.0218
     1.4692   1.6706   2.2336   2.3914   2.4000   2.4128   2.8009   2.8038
     2.8143   2.8430   3.2139   3.2597   3.3186   3.4147   3.4992   3.7123
     3.7798   4.0774   6.5493   6.5694   6.5722   6.6471   7.0240   7.1219
     7.1283   7.1502

          k =-1.0162-0.2579 0.1485 ( 36506 PWs)   bands (ev):

   -44.1319 -44.1318 -22.2475 -22.2475 -22.2338 -22.2338 -22.0561 -22.0561
    -6.7086  -6.6942  -6.0117  -6.0037  -5.9141  -5.9091  -5.3357  -5.3354
    -4.5045  -4.4866  -0.1157  -0.1087   0.5237   0.5307   1.0110   1.0281
     1.4650   1.5954   1.9886   2.0885   2.3751   2.3987   2.7027   2.7043
     2.9397   3.0299   3.1034   3.1936   3.5551   3.5726   3.6540   3.7547
     4.0276   4.1419   6.0220   6.0384   6.4876   6.5633   7.1022   7.1258
     7.3261   7.3754

          k =-1.0162-0.2579-0.2971 ( 36528 PWs)   bands (ev):

   -44.1319 -44.1319 -22.2475 -22.2475 -22.2338 -22.2338 -22.0561 -22.0561
    -6.7004  -6.7004  -6.0231  -6.0231  -5.8976  -5.8976  -5.3324  -5.3324
    -4.4990  -4.4990  -0.1756  -0.1756   0.7801   0.7801   0.9524   0.9524
     1.5289   1.5289   1.7555   1.7555   2.3749   2.3749   2.7702   2.7702
     2.9018   2.9018   3.1642   3.1642   3.6331   3.6331   3.8043   3.8043
     4.3756   4.3756   5.5749   5.5749   6.4408   6.4408   7.1362   7.1362
     7.4305   7.4305

          k = 0.5081 0.0000 0.0000 ( 36503 PWs)   bands (ev):

   -44.1331 -44.1331 -22.2545 -22.2545 -22.2007 -22.2007 -22.0602 -22.0601
    -7.4015  -7.0396  -6.8915  -6.6825  -6.0642  -5.2631  -5.0602  -4.6806
    -4.6444  -4.4457   0.4214   0.6101   0.6244   1.1995   1.2138   1.3992
     1.6592   1.6928   1.9573   2.1140   2.1719   2.2222   2.4215   3.3647
     3.4830   3.4939   3.5724   3.5844   3.7783   3.9107   3.9306   4.2150
     4.4245   5.0632   5.5828   6.0284   6.1291   6.5488   6.5539   6.9831
     7.4606   7.5790

          k = 0.5081 0.0000 0.1485 ( 36453 PWs)   bands (ev):

   -44.1331 -44.1331 -22.2545 -22.2545 -22.2007 -22.2007 -22.0601 -22.0601
    -7.3695  -7.1436  -6.8121  -6.6947  -5.9845  -5.4848  -4.8878  -4.6692
    -4.6496  -4.4752   0.4181   0.6328   0.7594   1.0090   1.2474   1.3749
     1.4028   1.5437   2.0173   2.1057   2.3708   2.4128   2.7993   3.3893
     3.4589   3.4765   3.4941   3.5965   3.7011   3.8217   3.8368   4.2713
     4.3304   4.5002   6.1320   6.1854   6.3347   6.5408   6.6114   6.8443
     7.3041   7.5164

          k = 0.5081 0.0000-0.2971 ( 36452 PWs)   bands (ev):

   -44.1331 -44.1331 -22.2545 -22.2545 -22.2007 -22.2007 -22.0601 -22.0601
    -7.2779  -7.2779  -6.7347  -6.7347  -5.7700  -5.7700  -4.7416  -4.7416
    -4.5600  -4.5600   0.5157   0.5157   1.0294   1.0294   1.1108   1.1108
     1.3799   1.3799   2.0613   2.0613   2.6990   2.6990   3.1497   3.1497
     3.4028   3.4028   3.5710   3.5710   3.7394   3.7394   3.8330   3.8330
     4.3326   4.3326   6.3957   6.3957   6.5234   6.5234   6.8473   6.8473
     7.1402   7.1402

          k = 0.7622 0.0645 0.0000 ( 36505 PWs)   bands (ev):

   -44.1322 -44.1322 -22.2497 -22.2497 -22.2241 -22.2241 -22.0573 -22.0573
    -6.9420  -6.7341  -6.5349  -6.4756  -5.7855  -5.3861  -5.2169  -5.1084
    -4.5526  -4.5360   0.0099   0.0496   0.5236   1.0243   1.0448   1.2841
     1.4459   1.5656   1.9380   2.0944   2.2604   2.3419   2.3555   2.7640
     2.8768   3.3148   3.3589   3.4814   3.6048   3.6320   3.7059   3.8281
     3.8624   4.5968   5.9024   6.3158   6.3715   6.8214   6.8980   6.8982
     7.3202   7.6323

          k = 0.7622 0.0645 0.1485 ( 36509 PWs)   bands (ev):

   -44.1322 -44.1322 -22.2497 -22.2497 -22.2241 -22.2241 -22.0573 -22.0573
    -6.9186  -6.7758  -6.5209  -6.4818  -5.7270  -5.4503  -5.1950  -5.1221
    -4.5468  -4.5355   0.0214   0.2103   0.3911   0.9027   1.0315   1.2455
     1.4629   1.6259   1.9255   1.9928   2.0587   2.6379   2.6769   2.8349
     2.8694   3.0899   3.3261   3.3977   3.5397   3.6136   3.6553   3.9584
     3.9980   4.5298   5.6992   6.3258   6.6615   6.7448   6.9228   6.9791
     7.0553   7.5991

          k = 0.7622 0.0645-0.2971 ( 36472 PWs)   bands (ev):

   -44.1322 -44.1322 -22.2497 -22.2497 -22.2241 -22.2241 -22.0573 -22.0573
    -6.8551  -6.8551  -6.4985  -6.4985  -5.5900  -5.5900  -5.1561  -5.1561
    -4.5381  -4.5381   0.1638   0.1638   0.5457   0.5457   1.1058   1.1058
     1.5616   1.5616   1.9637   1.9637   2.3546   2.3546   2.8208   2.8208
     2.9749   2.9749   3.3833   3.3833   3.5918   3.5918   3.8684   3.8684
     4.1118   4.1118   6.1701   6.1701   6.4495   6.4495   6.9449   6.9449
     7.4556   7.4556

          k = 1.0162 0.1290 0.0000 ( 36514 PWs)   bands (ev):

   -44.1319 -44.1318 -22.2475 -22.2475 -22.2338 -22.2338 -22.0561 -22.0561
    -6.7124  -6.6923  -5.9904  -5.9798  -5.9366  -5.9292  -5.3390  -5.3384
    -4.5048  -4.4795  -0.0241   0.0103   0.2995   0.3293   1.0062   1.0295
     1.4752   1.6613   2.2328   2.3916   2.3935   2.4132   2.7942   2.8054
     2.8101   2.8707   3.2316   3.2430   3.3010   3.4030   3.5396   3.6919
     3.7655   4.0911   6.5385   6.5643   6.5836   6.6538   7.0425   7.1230
     7.1304   7.1373

          k = 1.0162 0.1290 0.1485 ( 36524 PWs)   bands (ev):

   -44.1319 -44.1319 -22.2475 -22.2475 -22.2338 -22.2338 -22.0561 -22.0561
    -6.7086  -6.6942  -6.0116  -6.0038  -5.9141  -5.9091  -5.3358  -5.3353
    -4.5045  -4.4866  -0.1179  -0.1069   0.5250   0.5300   1.0131   1.0264
     1.4704   1.5902   2.0006   2.0720   2.3745   2.3937   2.6617   2.7522
     2.9522   3.0412   3.0936   3.1850   3.5285   3.6085   3.6523   3.7455
     4.0076   4.1613   6.0145   6.0493   6.4845   6.5659   7.1077   7.1248
     7.3335   7.3687

          k = 1.0162 0.1290-0.2971 ( 36516 PWs)   bands (ev):

   -44.1319 -44.1319 -22.2475 -22.2475 -22.2338 -22.2338 -22.0561 -22.0561
    -6.7004  -6.7004  -6.0231  -6.0231  -5.8976  -5.8976  -5.3324  -5.3324
    -4.4990  -4.4990  -0.1758  -0.1758   0.7805   0.7805   0.9524   0.9524
     1.5299   1.5299   1.7563   1.7563   2.3660   2.3660   2.7542   2.7542
     2.9452   2.9452   3.1430   3.1430   3.6364   3.6364   3.8009   3.8009
     4.3761   4.3761   5.5772   5.5772   6.4403   6.4403   7.1377   7.1377
     7.4313   7.4313

          k =-0.7622-0.3224 0.0000 ( 36511 PWs)   bands (ev):

   -44.1322 -44.1322 -22.2497 -22.2497 -22.2241 -22.2241 -22.0573 -22.0573
    -6.9204  -6.7407  -6.5313  -6.4943  -5.7859  -5.3938  -5.2153  -5.1101
    -4.5694  -4.5170   0.0199   0.0254   0.4866   0.9811   1.0523   1.2525
     1.5047   1.6674   2.0271   2.0526   2.2662   2.3867   2.4477   2.8255
     2.9012   3.2069   3.3219   3.4472   3.5683   3.6544   3.6656   3.8045
     3.8735   4.5061   5.9084   6.3114   6.4191   6.7585   6.8931   7.0057
     7.2722   7.5973

          k =-0.7622-0.3224 0.1485 ( 36492 PWs)   bands (ev):

   -44.1322 -44.1322 -22.2497 -22.2497 -22.2241 -22.2241 -22.0573 -22.0573
    -6.8986  -6.7726  -6.5275  -6.5005  -5.7260  -5.4526  -5.1974  -5.1243
    -4.5584  -4.5222   0.0085   0.2115   0.3683   0.9020   0.9993   1.2097
     1.5317   1.6305   1.8778   2.1638   2.2128   2.6074   2.6907   2.8661
     2.9055   3.1045   3.2072   3.3742   3.4757   3.6049   3.7001   3.8817
     3.9517   4.5359   5.6401   6.3802   6.6235   6.7423   6.8816   7.0205
     7.1101   7.5420

          k =-0.7622-0.3224-0.2971 ( 36508 PWs)   bands (ev):

   -44.1322 -44.1322 -22.2497 -22.2497 -22.2241 -22.2241 -22.0573 -22.0573
    -6.8405  -6.8405  -6.5150  -6.5150  -5.5884  -5.5884  -5.1596  -5.1596
    -4.5375  -4.5375   0.1461   0.1461   0.5617   0.5617   1.0563   1.0563
     1.5763   1.5763   2.0704   2.0704   2.4295   2.4295   2.8175   2.8175
     3.0094   3.0094   3.2404   3.2404   3.5929   3.5929   3.8847   3.8847
     4.0787   4.0787   6.1114   6.1114   6.4467   6.4467   7.0305   7.0305
     7.3812   7.3812

          k =-0.5081-0.2579 0.0000 ( 36480 PWs)   bands (ev):

   -44.1331 -44.1331 -22.2545 -22.2545 -22.2007 -22.2007 -22.0602 -22.0601
    -7.3875  -7.0373  -6.8886  -6.6962  -6.0766  -5.2626  -5.0700  -4.6946
    -4.6264  -4.4472   0.4026   0.5951   0.6541   1.2153   1.2795   1.4869
     1.6562   1.7106   2.0064   2.0851   2.1645   2.2956   2.4224   3.3900
     3.3967   3.4612   3.5465   3.5722   3.7490   3.7781   3.9441   4.1011
     4.4137   5.0747   5.5654   6.0002   6.1136   6.6857   6.7266   6.8624
     7.3963   7.5318

          k =-0.5081-0.2579 0.1485 ( 36485 PWs)   bands (ev):

   -44.1331 -44.1331 -22.2545 -22.2545 -22.2007 -22.2007 -22.0601 -22.0601
    -7.3560  -7.1353  -6.8178  -6.7085  -5.9931  -5.4851  -4.9028  -4.6641
    -4.6508  -4.4714   0.4112   0.6492   0.7546   0.9994   1.2796   1.3782
     1.5154   1.6215   2.0190   2.0807   2.3291   2.5261   2.8122   3.3313
     3.4154   3.4554   3.5529   3.5631   3.6158   3.7312   3.8475   4.1508
     4.2802   4.5201   6.1231   6.1766   6.2800   6.6916   6.7403   6.7531
     7.2272   7.4900

          k =-0.5081-0.2579-0.2971 ( 36478 PWs)   bands (ev):

   -44.1331 -44.1331 -22.2545 -22.2545 -22.2007 -22.2007 -22.0601 -22.0601
    -7.2659  -7.2659  -6.7469  -6.7469  -5.7729  -5.7729  -4.7547  -4.7547
    -4.5508  -4.5508   0.5243   0.5243   1.0259   1.0259   1.0842   1.0842
     1.5127   1.5127   2.0496   2.0496   2.7344   2.7344   3.1744   3.1744
     3.3855   3.3855   3.4900   3.4900   3.6865   3.6865   3.8311   3.8311
     4.2625   4.2625   6.3434   6.3434   6.6357   6.6357   6.7931   6.7931
     7.1436   7.1436

          k =-0.2541-0.1934 0.0000 ( 36410 PWs)   bands (ev):

   -44.1340 -44.1340 -22.2592 -22.2592 -22.1773 -22.1773 -22.0630 -22.0629
    -7.7287  -7.3652  -7.0528  -6.8184  -6.2700  -5.3655  -4.9622  -4.8057
    -4.7340  -3.9914   0.4569   0.8816   0.9665   1.2637   1.2708   1.4401
     1.8206   1.8794   2.0187   2.5336   2.5815   3.2199   3.2836   3.6551
     3.6850   3.7285   3.7757   3.8651   3.8847   4.1968   4.2602   4.2829
     4.3891   4.6003   5.8697   6.0063   6.2852   6.5890   6.6322   6.7714
     6.9935   7.0940

          k =-0.2541-0.1934 0.1485 ( 36427 PWs)   bands (ev):

   -44.1340 -44.1340 -22.2592 -22.2592 -22.1773 -22.1773 -22.0630 -22.0629
    -7.6946  -7.4582  -6.9768  -6.8337  -6.1872  -5.6165  -4.8346  -4.7496
    -4.6632  -4.0827   0.5077   0.9358   0.9590   1.0351   1.2186   1.4565
     1.7850   2.1031   2.2792   2.5302   2.5612   2.9330   3.3571   3.3905
     3.5754   3.6646   3.7872   3.8984   3.9829   4.1281   4.2799   4.2915
     4.6743   4.8565   5.8283   5.9497   6.1646   6.3322   6.4867   6.7397
     7.1839   7.2874

          k =-0.2541-0.1934-0.2971 ( 36422 PWs)   bands (ev):

   -44.1340 -44.1340 -22.2592 -22.2592 -22.1773 -22.1773 -22.0629 -22.0629
    -7.5973  -7.5973  -6.8840  -6.8840  -5.9504  -5.9504  -4.7872  -4.7872
    -4.3314  -4.3314   0.6756   0.6756   1.0857   1.0857   1.1839   1.1839
     2.1328   2.1328   2.4691   2.4691   2.6703   2.6703   3.2043   3.2043
     3.6081   3.6081   3.8206   3.8206   4.0870   4.0870   4.2943   4.2943
     5.0454   5.0454   5.7392   5.7392   6.1522   6.1522   6.5206   6.5206
     7.3896   7.3896

          k = 0.0000-0.1290 0.0000 ( 36417 PWs)   bands (ev):

   -44.1344 -44.1344 -22.2611 -22.2611 -22.1675 -22.1675 -22.0641 -22.0640
    -7.8499  -7.4784  -7.1259  -6.8628  -6.3268  -5.4101  -4.9435  -4.8467
    -4.7811  -3.8383   0.3642   0.7523   0.8088   1.1277   1.4683   1.5580
     2.2749   2.3389   2.5791   2.7421   2.9488   3.0150   3.2830   3.4022
     3.6412   3.7779   3.8501   4.0131   4.2432   4.2829   4.3078   4.6734
     4.8461   5.4600   5.6585   5.8310   5.8610   5.9978   6.2131   6.8243
     6.9830   7.2378

          k = 0.0000-0.1290 0.1485 ( 36419 PWs)   bands (ev):

   -44.1344 -44.1344 -22.2611 -22.2611 -22.1675 -22.1675 -22.0641 -22.0640
    -7.8151  -7.5729  -7.0424  -6.8798  -6.2474  -5.6698  -4.8520  -4.7934
    -4.6476  -3.9536   0.4283   0.8447   0.9095   1.0143   1.0979   1.9221
     2.0801   2.3025   2.4955   2.8112   2.9349   3.1265   3.3665   3.4178
     3.6924   3.8404   3.8429   3.9923   4.1785   4.3044   4.3282   4.6756
     4.7714   4.9815   5.8175   5.9687   5.9966   6.0254   6.5374   6.6299
     6.8059   7.1791

          k = 0.0000-0.1290-0.2971 ( 36464 PWs)   bands (ev):

   -44.1344 -44.1344 -22.2611 -22.2611 -22.1675 -22.1675 -22.0641 -22.0641
    -7.7155  -7.7155  -6.9368  -6.9368  -6.0124  -6.0124  -4.8216  -4.8216
    -4.2560  -4.2560   0.6452   0.6452   0.9474   0.9474   1.3674   1.3674
     2.3813   2.3813   2.6530   2.6530   2.8902   2.8902   3.4826   3.4826
     3.8356   3.8356   4.0086   4.0086   4.2509   4.2509   4.4067   4.4067
     4.6963   4.6963   5.9491   5.9491   6.2401   6.2401   6.4220   6.4220
     6.9913   6.9913

          k = 1.0162 0.0000 0.0000 ( 36499 PWs)   bands (ev):

   -44.1319 -44.1318 -22.2475 -22.2475 -22.2338 -22.2338 -22.0561 -22.0561
    -6.7124  -6.6922  -5.9902  -5.9800  -5.9367  -5.9292  -5.3390  -5.3384
    -4.5048  -4.4795  -0.0284   0.0147   0.2964   0.3326   1.0027   1.0341
     1.4820   1.6512   2.2318   2.3879   2.3920   2.4136   2.7900   2.8046
     2.8099   2.8933   3.2533   3.2559   3.2566   3.3868   3.5953   3.6540
     3.7528   4.1035   6.5316   6.5598   6.5910   6.6599   7.0706   7.1149
     7.1242   7.1325

          k = 1.0162 0.0000 0.1485 ( 36485 PWs)   bands (ev):

   -44.1318 -44.1318 -22.2475 -22.2475 -22.2338 -22.2338 -22.0561 -22.0561
    -6.7086  -6.6942  -6.0115  -6.0039  -5.9140  -5.9092  -5.3358  -5.3353
    -4.5045  -4.4866  -0.1195  -0.1056   0.5272   0.5284   1.0162   1.0237
     1.4764   1.5843   2.0251   2.0431   2.3803   2.3826   2.6479   2.7701
     2.9721   3.0633   3.0688   3.1758   3.5171   3.6230   3.6612   3.7318
     3.9917   4.1767   6.0104   6.0569   6.4815   6.5683   7.1151   7.1219
     7.3486   7.3543

          k = 1.0162 0.0000-0.2971 ( 36514 PWs)   bands (ev):

   -44.1319 -44.1319 -22.2475 -22.2475 -22.2338 -22.2338 -22.0561 -22.0561
    -6.7004  -6.7004  -6.0230  -6.0230  -5.8976  -5.8976  -5.3324  -5.3324
    -4.4990  -4.4990  -0.1759  -0.1759   0.7810   0.7810   0.9523   0.9523
     1.5309   1.5309   1.7572   1.7572   2.3573   2.3573   2.7432   2.7432
     2.9935   2.9935   3.1118   3.1118   3.6398   3.6398   3.7974   3.7974
     4.3765   4.3765   5.5796   5.5796   6.4397   6.4397   7.1393   7.1393
     7.4320   7.4320

          k = 1.2703 0.0645 0.0000 ( 36468 PWs)   bands (ev):

   -44.1322 -44.1322 -22.2497 -22.2497 -22.2241 -22.2241 -22.0573 -22.0573
    -6.9102  -6.7447  -6.5298  -6.5020  -5.7861  -5.3970  -5.2146  -5.1109
    -4.5732  -4.5122   0.0157   0.0241   0.4715   0.9642   1.0638   1.2410
     1.5089   1.7136   2.0377   2.0872   2.2946   2.4048   2.4345   2.8530
     2.9058   3.1592   3.3483   3.4922   3.5190   3.5739   3.6618   3.7544
     3.9558   4.4546   5.9110   6.3062   6.4542   6.6993   6.9268   7.0648
     7.2364   7.5949

          k = 1.2703 0.0645 0.1485 ( 36490 PWs)   bands (ev):

   -44.1322 -44.1322 -22.2497 -22.2497 -22.2241 -22.2241 -22.0573 -22.0573
    -6.8891  -6.7721  -6.5302  -6.5086  -5.7256  -5.4536  -5.1984  -5.1253
    -4.5610  -4.5188   0.0027   0.2135   0.3581   0.8948   0.9997   1.1962
     1.5504   1.6365   1.8713   2.2382   2.2762   2.5941   2.6800   2.8754
     2.9192   3.1320   3.1660   3.3552   3.4539   3.5570   3.7583   3.8242
     3.9443   4.5367   5.6179   6.4090   6.5941   6.7400   6.8661   7.0683
     7.1235   7.5071

          k = 1.2703 0.0645-0.2971 ( 36480 PWs)   bands (ev):

   -44.1322 -44.1322 -22.2497 -22.2497 -22.2241 -22.2241 -22.0573 -22.0573
    -6.8340  -6.8340  -6.5224  -6.5224  -5.5878  -5.5878  -5.1611  -5.1611
    -4.5372  -4.5372   0.1390   0.1390   0.5679   0.5679   1.0405   1.0405
     1.5823   1.5823   2.0985   2.0985   2.4841   2.4841   2.8198   2.8198
     3.0241   3.0241   3.1741   3.1741   3.5895   3.5895   3.8727   3.8727
     4.0800   4.0800   6.0897   6.0897   6.4446   6.4446   7.0767   7.0767
     7.3391   7.3391

          k =-0.5081-0.3869 0.0000 ( 36463 PWs)   bands (ev):

   -44.1331 -44.1331 -22.2545 -22.2545 -22.2007 -22.2007 -22.0602 -22.0601
    -7.3770  -7.0356  -6.8878  -6.7050  -6.0857  -5.2621  -5.0770  -4.6999
    -4.6183  -4.4484   0.3901   0.6041   0.6485   1.2258   1.3449   1.5580
     1.6565   1.7181   2.0447   2.0688   2.1894   2.3040   2.4178   3.2750
     3.4200   3.4625   3.4861   3.6270   3.6991   3.7481   3.8616   4.0972
     4.4014   5.0788   5.5560   5.9091   6.1795   6.7773   6.7962   6.8504
     7.3204   7.5167

          k =-0.5081-0.3869 0.1485 ( 36477 PWs)   bands (ev):

   -44.1331 -44.1331 -22.2545 -22.2545 -22.2007 -22.2007 -22.0601 -22.0601
    -7.3459  -7.1293  -6.8229  -6.7177  -5.9992  -5.4852  -4.9129  -4.6614
    -4.6511  -4.4688   0.4066   0.6605   0.7472   0.9934   1.3071   1.3860
     1.6030   1.6924   2.0078   2.0673   2.3299   2.5620   2.8227   3.2277
     3.4164   3.4520   3.4922   3.5713   3.6090   3.7246   3.8152   4.1148
     4.2217   4.5307   6.0723   6.2013   6.2585   6.6607   6.7992   6.8783
     7.1534   7.4860

          k =-0.5081-0.3869-0.2971 ( 36492 PWs)   bands (ev):

   -44.1331 -44.1331 -22.2545 -22.2545 -22.2007 -22.2007 -22.0601 -22.0601
    -7.2570  -7.2570  -6.7561  -6.7561  -5.7748  -5.7748  -4.7633  -4.7633
    -4.5448  -4.5448   0.5298   0.5298   1.0221   1.0221   1.0727   1.0727
     1.6216   1.6216   2.0289   2.0289   2.7697   2.7697   3.1463   3.1463
     3.3590   3.3590   3.4501   3.4501   3.6829   3.6829   3.8232   3.8232
     4.2157   4.2157   6.3087   6.3087   6.6733   6.6733   6.7840   6.7840
     7.1641   7.1641

          k =-0.2541-0.3224 0.0000 ( 36485 PWs)   bands (ev):

   -44.1340 -44.1340 -22.2592 -22.2592 -22.1773 -22.1773 -22.0630 -22.0629
    -7.7186  -7.3636  -7.0451  -6.8272  -6.2892  -5.3676  -4.9740  -4.8100
    -4.7234  -3.9928   0.4827   0.8933   1.0874   1.2633   1.3123   1.5113
     1.8564   1.9164   2.0193   2.4602   2.5376   3.2423   3.3271   3.4857
     3.6037   3.6445   3.7477   3.8184   3.9235   4.1463   4.1467   4.2502
     4.3405   4.6031   5.9564   6.0325   6.3452   6.5845   6.7073   6.7917
     6.9205   7.0237

          k =-0.2541-0.3224 0.1485 ( 36445 PWs)   bands (ev):

   -44.1340 -44.1340 -22.2592 -22.2592 -22.1773 -22.1773 -22.0630 -22.0629
    -7.6849  -7.4526  -6.9762  -6.8424  -6.2019  -5.6193  -4.8553  -4.7443
    -4.6552  -4.0826   0.5303   0.9459   0.9799   1.1647   1.2926   1.4800
     1.8014   2.1065   2.3209   2.4637   2.5249   2.9192   3.3824   3.4309
     3.4817   3.5437   3.6695   3.8891   3.9141   4.0809   4.1948   4.2509
     4.6979   4.8336   5.8159   5.9825   6.1614   6.3646   6.5846   6.7437
     7.1425   7.2697

          k =-0.2541-0.3224-0.2971 ( 36442 PWs)   bands (ev):

   -44.1340 -44.1340 -22.2592 -22.2592 -22.1773 -22.1773 -22.0629 -22.0629
    -7.5888  -7.5888  -6.8906  -6.8906  -5.9574  -5.9574  -4.7940  -4.7940
    -4.3281  -4.3281   0.6916   0.6916   1.1719   1.1719   1.2258   1.2258
     2.1382   2.1382   2.4416   2.4416   2.6645   2.6645   3.2334   3.2334
     3.4611   3.4611   3.7953   3.7953   4.0408   4.0408   4.2307   4.2307
     5.0605   5.0605   5.6982   5.6982   6.1398   6.1398   6.6180   6.6180
     7.3671   7.3671

          k = 0.0000-0.2579 0.0000 ( 36445 PWs)   bands (ev):

   -44.1344 -44.1344 -22.2611 -22.2611 -22.1675 -22.1675 -22.0641 -22.0640
    -7.8410  -7.4769  -7.1163  -6.8711  -6.3474  -5.4133  -4.9565  -4.8519
    -4.7684  -3.8397   0.4016   0.7635   0.9200   1.1758   1.4941   1.6192
     2.2772   2.3408   2.5769   2.7599   2.9497   3.0367   3.3187   3.3871
     3.4339   3.6497   3.7509   3.9593   4.1545   4.1724   4.2434   4.6727
     4.8201   5.4117   5.7163   5.8493   5.9121   6.0728   6.3015   6.7841
     6.9833   7.1777

          k = 0.0000-0.2579 0.1485 ( 36452 PWs)   bands (ev):

   -44.1344 -44.1344 -22.2611 -22.2611 -22.1675 -22.1675 -22.0641 -22.0640
    -7.8064  -7.5679  -7.0395  -6.8876  -6.2639  -5.6737  -4.8721  -4.7867
    -4.6413  -3.9538   0.4619   0.9253   0.9519   1.0622   1.1456   1.9379
     2.1200   2.3049   2.4973   2.8230   2.9373   3.1269   3.2997   3.3783
     3.6290   3.6581   3.8182   3.9125   4.1718   4.1799   4.2077   4.6745
     4.7557   4.9715   5.8532   6.0135   6.0380   6.0505   6.5728   6.6084
     6.8080   7.1381

          k = 0.0000-0.2579-0.2971 ( 36454 PWs)   bands (ev):

   -44.1344 -44.1344 -22.2611 -22.2611 -22.1675 -22.1675 -22.0641 -22.0641
    -7.7079  -7.7079  -6.9416  -6.9416  -6.0210  -6.0210  -4.8274  -4.8274
    -4.2537  -4.2537   0.6790   0.6790   1.0330   1.0330   1.3854   1.3854
     2.3839   2.3839   2.6775   2.6775   2.8966   2.8966   3.3599   3.3599
     3.7741   3.7741   3.9907   3.9907   4.1157   4.1157   4.3887   4.3887
     4.6919   4.6919   5.9606   5.9606   6.2757   6.2757   6.4282   6.4282
     6.9733   6.9733

          k = 1.5243 0.0000 0.0000 ( 36439 PWs)   bands (ev):

   -44.1331 -44.1331 -22.2545 -22.2545 -22.2007 -22.2007 -22.0602 -22.0601
    -7.3726  -7.0349  -6.8879  -6.7083  -6.0895  -5.2620  -5.0799  -4.7015
    -4.6155  -4.4488   0.3850   0.6155   0.6369   1.2300   1.3769   1.5995
     1.6748   1.6866   2.0617   2.0696   2.2373   2.2647   2.4142   3.2304
     3.4131   3.4327   3.4953   3.6969   3.7189   3.7299   3.7392   4.1157
     4.3957   5.0791   5.5526   5.8709   6.2096   6.7411   6.8495   6.9055
     7.2748   7.5496

          k = 1.5243 0.0000 0.1485 ( 36476 PWs)   bands (ev):

   -44.1331 -44.1331 -22.2545 -22.2545 -22.2007 -22.2007 -22.0601 -22.0601
    -7.3415  -7.1268  -6.8254  -6.7214  -6.0018  -5.4852  -4.9169  -4.6607
    -4.6510  -4.4678   0.4047   0.6657   0.7426   0.9910   1.3191   1.3894
     1.6521   1.7181   2.0114   2.0497   2.3368   2.5650   2.8281   3.1853
     3.3775   3.4583   3.4753   3.6003   3.6333   3.7184   3.7615   4.1510
     4.1621   4.5349   6.0464   6.2141   6.2533   6.6308   6.8408   6.9463
     7.1060   7.4992

          k = 1.5243 0.0000-0.2971 ( 36508 PWs)   bands (ev):

   -44.1331 -44.1331 -22.2545 -22.2545 -22.2007 -22.2007 -22.0601 -22.0601
    -7.2533  -7.2533  -6.7600  -6.7600  -5.7756  -5.7756  -4.7668  -4.7668
    -4.5425  -4.5425   0.5319   0.5319   1.0204   1.0204   1.0688   1.0688
     1.6760   1.6760   2.0127   2.0127   2.7893   2.7893   3.1097   3.1097
     3.3581   3.3581   3.4431   3.4431   3.6814   3.6814   3.8178   3.8178
     4.1979   4.1979   6.2947   6.2947   6.6695   6.6695   6.7949   6.7949
     7.1797   7.1797

          k =-0.2541-0.4514 0.0000 ( 36444 PWs)   bands (ev):

   -44.1340 -44.1340 -22.2592 -22.2592 -22.1773 -22.1773 -22.0630 -22.0629
    -7.7113  -7.3624  -7.0403  -6.8325  -6.3034  -5.3690  -4.9826  -4.8106
    -4.7183  -3.9937   0.4934   0.9027   1.2065   1.2564   1.3317   1.5967
     1.8834   1.9551   2.0158   2.3793   2.4634   3.2171   3.3456   3.4146
     3.5041   3.6797   3.7707   3.8030   3.8461   4.1029   4.1181   4.1926
     4.3337   4.6045   6.0286   6.0454   6.3726   6.5802   6.7678   6.7980
     6.8340   7.0022

          k =-0.2541-0.4514 0.1485 ( 36461 PWs)   bands (ev):

   -44.1340 -44.1340 -22.2592 -22.2592 -22.1773 -22.1773 -22.0630 -22.0629
    -7.6779  -7.4486  -6.9764  -6.8480  -6.2124  -5.6211  -4.8680  -4.7418
    -4.6502  -4.0826   0.5391   0.9592   0.9842   1.2952   1.3473   1.5060
     1.8255   2.1076   2.3619   2.3886   2.4482   2.9207   3.3171   3.3479
     3.4498   3.5593   3.7269   3.8450   3.8784   3.9661   4.1869   4.2186
     4.7416   4.7949   5.8092   6.0068   6.1677   6.3500   6.6520   6.7415
     7.1270   7.2554

          k =-0.2541-0.4514-0.2971 ( 36490 PWs)   bands (ev):

   -44.1340 -44.1340 -22.2592 -22.2592 -22.1773 -22.1773 -22.0629 -22.0629
    -7.5827  -7.5827  -6.8954  -6.8954  -5.9623  -5.9623  -4.7988  -4.7988
    -4.3259  -4.3259   0.6974   0.6974   1.1895   1.1895   1.3272   1.3272
     2.1463   2.1463   2.3892   2.3892   2.6619   2.6619   3.2375   3.2375
     3.3557   3.3557   3.8233   3.8233   3.9825   3.9825   4.1996   4.1996
     5.0720   5.0720   5.6732   5.6732   6.1218   6.1218   6.6771   6.6771
     7.3544   7.3544

          k = 0.0000-0.3869 0.0000 ( 36477 PWs)   bands (ev):

   -44.1344 -44.1344 -22.2611 -22.2611 -22.1675 -22.1675 -22.0641 -22.0640
    -7.8318  -7.4754  -7.1073  -6.8782  -6.3690  -5.4164  -4.9705  -4.8511
    -4.7609  -3.8411   0.4248   0.7756   1.0719   1.2377   1.5184   1.6884
     2.2796   2.3448   2.5747   2.7790   2.9501   3.0734   3.1127   3.1482
     3.5383   3.6022   3.7234   3.9484   3.9859   4.0217   4.2434   4.6722
     4.7944   5.3842   5.7761   5.8677   5.9746   6.1189   6.3609   6.7000
     6.9835   7.1475

          k = 0.0000-0.3869 0.1485 ( 36452 PWs)   bands (ev):

   -44.1344 -44.1344 -22.2611 -22.2611 -22.1675 -22.1675 -22.0641 -22.0640
    -7.7976  -7.5629  -7.0373  -6.8947  -6.2806  -5.6774  -4.8890  -4.7826
    -4.6357  -3.9539   0.4801   0.9544   1.0228   1.1641   1.2269   1.9567
     2.1597   2.3074   2.4988   2.8361   2.9393   3.0164   3.1004   3.3298
     3.5591   3.6905   3.7930   3.9134   4.0425   4.0657   4.1647   4.6737
     4.7404   4.9685   5.8987   6.0505   6.0509   6.0737   6.5541   6.6013
     6.8102   7.1058

          k = 0.0000-0.3869-0.2971 ( 36454 PWs)   bands (ev):

   -44.1344 -44.1344 -22.2611 -22.2611 -22.1675 -22.1675 -22.0641 -22.0641
    -7.7001  -7.7001  -6.9466  -6.9466  -6.0294  -6.0294  -4.8332  -4.8332
    -4.2513  -4.2513   0.6936   0.6936   1.1641   1.1641   1.4044   1.4044
     2.3865   2.3865   2.6862   2.6862   2.9033   2.9033   3.1472   3.1472
     3.8081   3.8081   3.9723   3.9723   3.9972   3.9972   4.3675   4.3675
     4.6878   4.6878   5.9554   5.9554   6.3038   6.3038   6.4348   6.4348
     6.9447   6.9447

          k =-2.0325 0.0000 0.0000 ( 36452 PWs)   bands (ev):

   -44.1344 -44.1344 -22.2611 -22.2611 -22.1675 -22.1675 -22.0641 -22.0640
    -7.8279  -7.4747  -7.1039  -6.8806  -6.3783  -5.4176  -4.9764  -4.8497
    -4.7587  -3.8416   0.4304   0.7808   1.1915   1.2201   1.5280   1.7309
     2.2806   2.3474   2.5738   2.7874   2.9500   2.9830   3.0335   3.0943
     3.6077   3.6641   3.7118   3.8450   3.9453   3.9633   4.2434   4.6721
     4.7839   5.3759   5.8008   5.8754   6.0079   6.1331   6.3795   6.6509
     6.9835   7.1417

          k =-2.0325 0.0000 0.1485 ( 36456 PWs)   bands (ev):

   -44.1344 -44.1344 -22.2611 -22.2611 -22.1675 -22.1675 -22.0641 -22.0640
    -7.7938  -7.5608  -7.0367  -6.8973  -6.2877  -5.6789  -4.8954  -4.7813
    -4.6336  -3.9540   0.4837   0.9640   1.0436   1.2267   1.2762   1.9652
     2.1784   2.3084   2.4995   2.8419   2.9213   2.9400   2.9821   3.3510
     3.5382   3.7587   3.7824   3.9143   3.9541   4.0067   4.1615   4.6734
     4.7342   4.9683   5.9224   6.0564   6.0657   6.0744   6.5286   6.6049
     6.8112   7.0956

          k =-2.0325 0.0000-0.2971 ( 36460 PWs)   bands (ev):

   -44.1344 -44.1344 -22.2611 -22.2611 -22.1675 -22.1675 -22.0641 -22.0641
    -7.6968  -7.6968  -6.9488  -6.9488  -6.0329  -6.0329  -4.8357  -4.8357
    -4.2504  -4.2504   0.6959   0.6959   1.2343   1.2343   1.4125   1.4125
     2.3876   2.3876   2.6728   2.6728   2.9062   2.9062   3.0585   3.0585
     3.8513   3.8513   3.9302   3.9302   3.9645   3.9645   4.3597   4.3597
     4.6862   4.6862   5.9500   5.9500   6.3131   6.3131   6.4376   6.4376
     6.9316   6.9316

     the Fermi energy is     5.4991 ev

     WARNING: integrated charge=    83.99332034, expected=    84.00000000

!    total energy              =   -4240.95674571 Ry

     total all-electron energy =   -150287.650440 Ry
     estimated scf accuracy    <          4.4E-12 Ry
     smearing contrib. (-TS)   =       0.00002361 Ry
     internal energy E=F+TS    =   -4240.95676932 Ry

     The total energy is F=E-TS. E is the sum of the following terms:
     one-electron contribution =    -166.84304406 Ry
     hartree contribution      =     116.89436729 Ry
     xc contribution           =    -201.49212381 Ry
     ewald contribution        =    -221.99679542 Ry
     one-center paw contrib.   =   -3767.51917333 Ry

     convergence has been achieved in  18 iterations

     Forces acting on atoms (cartesian axes, Ry/au):

     atom    1 type  1   force =     0.00000000   -0.00085714    0.00000000
     atom    2 type  1   force =     0.00000000    0.00085714    0.00000000
     atom    3 type  2   force =     0.00000000    0.00002544    0.00000000
     atom    4 type  2   force =     0.00000000   -0.00002544    0.00000000
     atom    5 type  2   force =     0.00000000    0.00021751    0.00024428
     atom    6 type  2   force =     0.00000000   -0.00021751   -0.00024428
     atom    7 type  2   force =     0.00000000    0.00021751   -0.00024428
     atom    8 type  2   force =    -0.00000000   -0.00021751    0.00024428
     atom    9 type  2   force =     0.00000000    0.00139968    0.00139570
     atom   10 type  2   force =     0.00000000   -0.00139968   -0.00139570
     atom   11 type  2   force =     0.00000000    0.00139968   -0.00139570
     atom   12 type  2   force =     0.00000000   -0.00139968    0.00139570

     Total force =     0.004187     Total SCF correction =     0.000003


     Computing stress (Cartesian axis) and pressure

          total   stress  (Ry/bohr**3)                   (kbar)     P=       -0.60
  -0.00000315   0.00000000   0.00000000           -0.46        0.00        0.00
   0.00000000  -0.00000325   0.00000000            0.00       -0.48        0.00
   0.00000000   0.00000000  -0.00000577            0.00        0.00       -0.85

 
     init_run     :     20.44s CPU     20.91s WALL (       1 calls)
     electrons    :    934.16s CPU    945.04s WALL (       1 calls)
     forces       :      7.13s CPU      7.35s WALL (       1 calls)
     stress       :     41.81s CPU     42.44s WALL (       1 calls)

     Called by init_run:
     wfcinit      :     15.74s CPU     15.92s WALL (       1 calls)
     potinit      :      1.47s CPU      1.51s WALL (       1 calls)
     hinit0       :      1.87s CPU      1.91s WALL (       1 calls)

     Called by electrons:
     c_bands      :    780.39s CPU    783.65s WALL (      19 calls)
     sum_band     :    127.77s CPU    131.86s WALL (      19 calls)
     v_of_rho     :      5.59s CPU      5.88s WALL (      19 calls)
     newd         :     14.45s CPU     17.81s WALL (      19 calls)
     PAW_pot      :      6.08s CPU      6.09s WALL (      19 calls)
     mix_rho      :      0.85s CPU      0.88s WALL (      19 calls)

     Called by c_bands:
     init_us_2    :     11.50s CPU     11.57s WALL (    2583 calls)
     cegterg      :    702.67s CPU    705.37s WALL (    1197 calls)

     Called by *egterg:
     cdiaghg      :     27.72s CPU     27.79s WALL (    8287 calls)
     h_psi        :    536.15s CPU    538.73s WALL (    8413 calls)
     s_psi        :     45.41s CPU     45.47s WALL (    8413 calls)
     g_psi        :      1.97s CPU      1.98s WALL (    7153 calls)

     Called by h_psi:
     h_psi:calbec :     39.04s CPU     39.11s WALL (    8413 calls)
     vloc_psi     :    448.48s CPU    450.81s WALL (    8413 calls)
     add_vuspsi   :     45.57s CPU     45.65s WALL (    8413 calls)

     General routines
     calbec       :     52.10s CPU     52.20s WALL (    9925 calls)
     fft          :      3.42s CPU      3.53s WALL (     271 calls)
     ffts         :      0.08s CPU      0.08s WALL (      38 calls)
     fftw         :    415.28s CPU    417.35s WALL (  430198 calls)
     interpolate  :      0.31s CPU      0.31s WALL (      19 calls)
 
     Parallel routines
 
     PWSCF        :  16m43.80s CPU  16m56.07s WALL

 
   This run was terminated on:  15:34: 2  19Nov2021            

=------------------------------------------------------------------------------=
   JOB DONE.
=------------------------------------------------------------------------------=
