
     Program PWSCF v.6.8 starts on 19Nov2021 at 15:18:52 

     This program is part of the open-source Quantum ESPRESSO suite
     for quantum simulation of materials; please cite
         "P. Giannozzi et al., J. Phys.:Condens. Matter 21 395502 (2009);
         "P. Giannozzi et al., J. Phys.:Condens. Matter 29 465901 (2017);
         "P. Giannozzi et al., J. Chem. Phys. 152 154105 (2020);
          URL http://www.quantum-espresso.org", 
     in publications or presentations arising from this work. More details at
     http://www.quantum-espresso.org/quote

     Parallel version (MPI), running on    10 processors

     MPI processes distributed on     1 nodes
     R & G space division:  proc/nbgrp/npool/nimage =      10
     70626 MiB available memory on the printing compute node when the environment starts
 
     Waiting for input...
     Reading input from standard input

     Current dimensions of program PWSCF are:
     Max number of different atomic species (ntypx) = 10
     Max number of k-points (npk) =  40000
     Max angular momentum in pseudopotentials (lmaxx) =  4
     file Zr.pbe-spn-kjpaw_psl.1.0.0.UPF: wavefunction(s)  4S 4P renormalized
     file Te.pbe-n-kjpaw_psl.1.0.0.UPF: wavefunction(s)  5S 5P renormalized
     Message from routine setup:
     using ibrav=0 with symmetry is DISCOURAGED, use correct ibrav instead

     Subspace diagonalization in iterative solution of the eigenvalue problem:
     a serial algorithm will be used

 
     Parallelization info
     --------------------
     sticks:   dense  smooth     PW     G-vecs:    dense   smooth      PW
     Min         734     293     87               115340    29174    4753
     Max         735     295     88               115345    29176    4760
     Sum        7345    2937    873              1153415   291749   47557
 
     Using Slab Decomposition
 


     bravais-lattice index     =            0
     lattice parameter (alat)  =      15.5510  a.u.
     unit-cell volume          =    3018.5011 (a.u.)^3
     number of atoms/cell      =           12
     number of atomic types    =            2
     number of electrons       =        84.00
     number of Kohn-Sham states=           50
     kinetic-energy cutoff     =      80.0000  Ry
     charge density cutoff     =     800.0000  Ry
     scf convergence threshold =      1.0E-10
     mixing beta               =       0.7000
     number of iterations used =            8  plain     mixing
     Exchange-correlation= SLA  PW   PBX  PBC
                           (   1   4   3   4   0   0   0)

     celldm(1)=  15.551040  celldm(2)=   0.000000  celldm(3)=   0.000000
     celldm(4)=   0.000000  celldm(5)=   0.000000  celldm(6)=   0.000000

     crystal axes: (cart. coord. in units of alat)
               a(1) = (   0.246007  -0.969268   0.000000 )  
               a(2) = (   0.246007   0.969268   0.000000 )  
               a(3) = (   0.000000   0.000000   1.683031 )  

     reciprocal axes: (cart. coord. in units 2 pi/alat)
               b(1) = (  2.032465 -0.515853  0.000000 )  
               b(2) = (  2.032465  0.515853  0.000000 )  
               b(3) = (  0.000000  0.000000  0.594166 )  


     PseudoPot. # 1 for Zr read from file:
     pseudo/Zr.pbe-spn-kjpaw_psl.1.0.0.UPF
     MD5 check sum: 02112c41713a0468aff2bb39ef194e36
     Pseudo is Projector augmented-wave + core cor, Zval = 12.0
     Generated using &quot;atomic&quot; code by A. Dal Corso  v.6.2.2
     Shape of augmentation charge: PSQ
     Using radial grid of 1225 points,  6 beta functions with: 
                l(1) =   0
                l(2) =   0
                l(3) =   1
                l(4) =   1
                l(5) =   2
                l(6) =   2
     Q(r) pseudized with 0 coefficients 


     PseudoPot. # 2 for Te read from file:
     pseudo/Te.pbe-n-kjpaw_psl.1.0.0.UPF
     MD5 check sum: 66247bff2bd9dbf220fbb0bf5ab56e9d
     Pseudo is Projector augmented-wave + core cor, Zval =  6.0
     Generated using &quot;atomic&quot; code by A. Dal Corso  v.6.3
     Shape of augmentation charge: PSQ
     Using radial grid of 1245 points,  6 beta functions with: 
                l(1) =   0
                l(2) =   0
                l(3) =   1
                l(4) =   1
                l(5) =   2
                l(6) =   2
     Q(r) pseudized with 0 coefficients 


     atomic species   valence    mass     pseudopotential
        Zr            12.00    91.22000     Zr( 1.00)
        Te             6.00   127.60000     Te( 1.00)

      8 Sym. Ops., with inversion, found ( 4 have fractional translation)



   Cartesian axes

     site n.     atom                  positions (alat units)
         1           Zr  tau(   1) = (   0.0000000   0.6112910   0.4207578  )
         2           Zr  tau(   2) = (   0.2460067   0.3579772   1.2622733  )
         3           Te  tau(   3) = (   0.2460067   0.3343626   0.4207578  )
         4           Te  tau(   4) = (   0.0000000   0.6349055   1.2622733  )
         5           Te  tau(   5) = (   0.2460067   0.8072386   0.2502974  )
         6           Te  tau(   6) = (   0.0000000   0.1620295   1.4327337  )
         7           Te  tau(   7) = (   0.2460067   0.8072386   0.5912181  )
         8           Te  tau(   8) = (   0.0000000   0.1620295   1.0918129  )
         9           Te  tau(   9) = (   0.0000000   0.4049353   0.7213831  )
        10           Te  tau(  10) = (   0.2460067   0.5643328   0.9616480  )
        11           Te  tau(  11) = (   0.0000000   0.4049353   0.1201324  )
        12           Te  tau(  12) = (   0.2460067   0.5643328   1.5628986  )

     number of k points=    63  Methfessel-Paxton smearing, width (Ry)=  0.0030
                       cart. coord. in units 2pi/alat
        k(    1) = (   0.0000000   0.0000000   0.0000000), wk =   0.0078125
        k(    2) = (   0.0000000   0.0000000   0.1485415), wk =   0.0156250
        k(    3) = (   0.0000000   0.0000000  -0.2970830), wk =   0.0078125
        k(    4) = (   0.2540581   0.0644816   0.0000000), wk =   0.0312500
        k(    5) = (   0.2540581   0.0644816   0.1485415), wk =   0.0625000
        k(    6) = (   0.2540581   0.0644816  -0.2970830), wk =   0.0312500
        k(    7) = (   0.5081162   0.1289633   0.0000000), wk =   0.0312500
        k(    8) = (   0.5081162   0.1289633   0.1485415), wk =   0.0625000
        k(    9) = (   0.5081162   0.1289633  -0.2970830), wk =   0.0312500
        k(   10) = (   0.7621743   0.1934449   0.0000000), wk =   0.0312500
        k(   11) = (   0.7621743   0.1934449   0.1485415), wk =   0.0625000
        k(   12) = (   0.7621743   0.1934449  -0.2970830), wk =   0.0312500
        k(   13) = (  -1.0162324  -0.2579266   0.0000000), wk =   0.0156250
        k(   14) = (  -1.0162324  -0.2579266   0.1485415), wk =   0.0312500
        k(   15) = (  -1.0162324  -0.2579266  -0.2970830), wk =   0.0156250
        k(   16) = (   0.5081162   0.0000000   0.0000000), wk =   0.0156250
        k(   17) = (   0.5081162   0.0000000   0.1485415), wk =   0.0312500
        k(   18) = (   0.5081162   0.0000000  -0.2970830), wk =   0.0156250
        k(   19) = (   0.7621743   0.0644816   0.0000000), wk =   0.0312500
        k(   20) = (   0.7621743   0.0644816   0.1485415), wk =   0.0625000
        k(   21) = (   0.7621743   0.0644816  -0.2970830), wk =   0.0312500
        k(   22) = (   1.0162324   0.1289633   0.0000000), wk =   0.0312500
        k(   23) = (   1.0162324   0.1289633   0.1485415), wk =   0.0625000
        k(   24) = (   1.0162324   0.1289633  -0.2970830), wk =   0.0312500
        k(   25) = (  -0.7621743  -0.3224082   0.0000000), wk =   0.0312500
        k(   26) = (  -0.7621743  -0.3224082   0.1485415), wk =   0.0625000
        k(   27) = (  -0.7621743  -0.3224082  -0.2970830), wk =   0.0312500
        k(   28) = (  -0.5081162  -0.2579266   0.0000000), wk =   0.0312500
        k(   29) = (  -0.5081162  -0.2579266   0.1485415), wk =   0.0625000
        k(   30) = (  -0.5081162  -0.2579266  -0.2970830), wk =   0.0312500
        k(   31) = (  -0.2540581  -0.1934449   0.0000000), wk =   0.0312500
        k(   32) = (  -0.2540581  -0.1934449   0.1485415), wk =   0.0625000
        k(   33) = (  -0.2540581  -0.1934449  -0.2970830), wk =   0.0312500
        k(   34) = (   0.0000000  -0.1289633   0.0000000), wk =   0.0156250
        k(   35) = (   0.0000000  -0.1289633   0.1485415), wk =   0.0312500
        k(   36) = (   0.0000000  -0.1289633  -0.2970830), wk =   0.0156250
        k(   37) = (   1.0162324   0.0000000   0.0000000), wk =   0.0156250
        k(   38) = (   1.0162324   0.0000000   0.1485415), wk =   0.0312500
        k(   39) = (   1.0162324   0.0000000  -0.2970830), wk =   0.0156250
        k(   40) = (   1.2702905   0.0644816   0.0000000), wk =   0.0312500
        k(   41) = (   1.2702905   0.0644816   0.1485415), wk =   0.0625000
        k(   42) = (   1.2702905   0.0644816  -0.2970830), wk =   0.0312500
        k(   43) = (  -0.5081162  -0.3868899   0.0000000), wk =   0.0312500
        k(   44) = (  -0.5081162  -0.3868899   0.1485415), wk =   0.0625000
        k(   45) = (  -0.5081162  -0.3868899  -0.2970830), wk =   0.0312500
        k(   46) = (  -0.2540581  -0.3224082   0.0000000), wk =   0.0312500
        k(   47) = (  -0.2540581  -0.3224082   0.1485415), wk =   0.0625000
        k(   48) = (  -0.2540581  -0.3224082  -0.2970830), wk =   0.0312500
        k(   49) = (   0.0000000  -0.2579266   0.0000000), wk =   0.0156250
        k(   50) = (   0.0000000  -0.2579266   0.1485415), wk =   0.0312500
        k(   51) = (   0.0000000  -0.2579266  -0.2970830), wk =   0.0156250
        k(   52) = (   1.5243485   0.0000000   0.0000000), wk =   0.0156250
        k(   53) = (   1.5243485   0.0000000   0.1485415), wk =   0.0312500
        k(   54) = (   1.5243485   0.0000000  -0.2970830), wk =   0.0156250
        k(   55) = (  -0.2540581  -0.4513715   0.0000000), wk =   0.0312500
        k(   56) = (  -0.2540581  -0.4513715   0.1485415), wk =   0.0625000
        k(   57) = (  -0.2540581  -0.4513715  -0.2970830), wk =   0.0312500
        k(   58) = (   0.0000000  -0.3868899   0.0000000), wk =   0.0156250
        k(   59) = (   0.0000000  -0.3868899   0.1485415), wk =   0.0312500
        k(   60) = (   0.0000000  -0.3868899  -0.2970830), wk =   0.0156250
        k(   61) = (  -2.0324647   0.0000000   0.0000000), wk =   0.0078125
        k(   62) = (  -2.0324647   0.0000000   0.1485415), wk =   0.0156250
        k(   63) = (  -2.0324647   0.0000000  -0.2970830), wk =   0.0078125

     Dense  grid:  1153415 G-vectors     FFT dimensions: ( 144, 144, 240)

     Smooth grid:   291749 G-vectors     FFT dimensions: (  90,  90, 150)

     Estimated max dynamical RAM per process >     657.19 MB

     Estimated total dynamical RAM >       6.42 GB

     Initial potential from superposition of free atoms

     starting charge   83.99353, renormalised to   84.00000
     Starting wfcs are   66 randomized atomic wfcs
     Checking if some PAW data can be deallocated... 

     total cpu time spent up to now is       19.5 secs

     Self-consistent Calculation

     iteration #  1     ecut=    80.00 Ry     beta= 0.70
     Davidson diagonalization with overlap
     ethr =  1.00E-02,  avg # of iterations =  2.0

     Threshold (ethr) on eigenvalues was too large:
     Diagonalizing with lowered threshold

     Davidson diagonalization with overlap
     ethr =  3.78E-04,  avg # of iterations =  4.1

     total cpu time spent up to now is      103.4 secs

     total energy              =   -4240.71657095 Ry
     estimated scf accuracy    <       0.42672571 Ry

     iteration #  2     ecut=    80.00 Ry     beta= 0.70
     Davidson diagonalization with overlap
     ethr =  5.08E-04,  avg # of iterations =  7.4

     total cpu time spent up to now is      164.1 secs

     total energy              =   -4240.62289458 Ry
     estimated scf accuracy    <       2.17427824 Ry

     iteration #  3     ecut=    80.00 Ry     beta= 0.70
     Davidson diagonalization with overlap
     ethr =  5.08E-04,  avg # of iterations =  5.0

     total cpu time spent up to now is      215.2 secs

     total energy              =   -4240.91430943 Ry
     estimated scf accuracy    <       0.02171470 Ry

     iteration #  4     ecut=    80.00 Ry     beta= 0.70
     Davidson diagonalization with overlap
     c_bands:  2 eigenvalues not converged
     c_bands:  1 eigenvalues not converged
     c_bands:  1 eigenvalues not converged
     c_bands:  1 eigenvalues not converged
     c_bands:  2 eigenvalues not converged
     c_bands:  1 eigenvalues not converged
     c_bands:  1 eigenvalues not converged
     c_bands:  1 eigenvalues not converged
     c_bands:  2 eigenvalues not converged
     c_bands:  1 eigenvalues not converged
     c_bands:  1 eigenvalues not converged
     c_bands:  1 eigenvalues not converged
     c_bands:  1 eigenvalues not converged
     c_bands:  1 eigenvalues not converged
     c_bands:  1 eigenvalues not converged
     c_bands:  1 eigenvalues not converged
     c_bands:  1 eigenvalues not converged
     c_bands:  2 eigenvalues not converged
     ethr =  2.59E-05,  avg # of iterations = 16.5

     total cpu time spent up to now is      306.2 secs

     total energy              =   -4240.93359641 Ry
     estimated scf accuracy    <       0.10684635 Ry

     iteration #  5     ecut=    80.00 Ry     beta= 0.70
     Davidson diagonalization with overlap
     ethr =  2.59E-05,  avg # of iterations =  5.0

     total cpu time spent up to now is      351.7 secs

     total energy              =   -4240.93594600 Ry
     estimated scf accuracy    <       0.02498371 Ry

     iteration #  6     ecut=    80.00 Ry     beta= 0.70
     Davidson diagonalization with overlap
     ethr =  2.59E-05,  avg # of iterations =  2.7

     total cpu time spent up to now is      391.2 secs

     total energy              =   -4240.93682508 Ry
     estimated scf accuracy    <       0.00391355 Ry

     iteration #  7     ecut=    80.00 Ry     beta= 0.70
     Davidson diagonalization with overlap
     c_bands:  1 eigenvalues not converged
     c_bands:  1 eigenvalues not converged
     c_bands:  1 eigenvalues not converged
     c_bands:  1 eigenvalues not converged
     c_bands:  1 eigenvalues not converged
     ethr =  4.66E-06,  avg # of iterations = 12.1

     total cpu time spent up to now is      458.2 secs

     total energy              =   -4240.93878629 Ry
     estimated scf accuracy    <       0.00272246 Ry

     iteration #  8     ecut=    80.00 Ry     beta= 0.70
     Davidson diagonalization with overlap
     c_bands:  1 eigenvalues not converged
     c_bands:  1 eigenvalues not converged
     ethr =  3.24E-06,  avg # of iterations =  3.3

     total cpu time spent up to now is      496.8 secs

     total energy              =   -4240.93880158 Ry
     estimated scf accuracy    <       0.00061402 Ry

     iteration #  9     ecut=    80.00 Ry     beta= 0.70
     Davidson diagonalization with overlap
     ethr =  7.31E-07,  avg # of iterations =  5.7

     total cpu time spent up to now is      542.5 secs

     total energy              =   -4240.93892489 Ry
     estimated scf accuracy    <       0.00001013 Ry

     iteration # 10     ecut=    80.00 Ry     beta= 0.70
     Davidson diagonalization with overlap
     c_bands:  1 eigenvalues not converged
     c_bands:  1 eigenvalues not converged
     ethr =  1.21E-08,  avg # of iterations = 10.8

     total cpu time spent up to now is      614.3 secs

     total energy              =   -4240.93894848 Ry
     estimated scf accuracy    <       0.00001351 Ry

     iteration # 11     ecut=    80.00 Ry     beta= 0.70
     Davidson diagonalization with overlap
     c_bands:  1 eigenvalues not converged
     ethr =  1.21E-08,  avg # of iterations =  3.4

     total cpu time spent up to now is      656.3 secs

     total energy              =   -4240.93895094 Ry
     estimated scf accuracy    <       0.00000003 Ry

     iteration # 12     ecut=    80.00 Ry     beta= 0.70
     Davidson diagonalization with overlap
     ethr =  4.11E-11,  avg # of iterations = 12.8

     total cpu time spent up to now is      748.7 secs

     total energy              =   -4240.93895101 Ry
     estimated scf accuracy    <       0.00000109 Ry

     iteration # 13     ecut=    80.00 Ry     beta= 0.70
     Davidson diagonalization with overlap
     ethr =  4.11E-11,  avg # of iterations =  7.0

     total cpu time spent up to now is      810.6 secs

     total energy              =   -4240.93895113 Ry
     estimated scf accuracy    <          8.1E-09 Ry

     iteration # 14     ecut=    80.00 Ry     beta= 0.70
     Davidson diagonalization with overlap
     ethr =  9.64E-12,  avg # of iterations =  6.0

     total cpu time spent up to now is      861.3 secs

     total energy              =   -4240.93895113 Ry
     estimated scf accuracy    <          2.3E-09 Ry

     iteration # 15     ecut=    80.00 Ry     beta= 0.70
     Davidson diagonalization with overlap
     ethr =  2.78E-12,  avg # of iterations =  2.5

     total cpu time spent up to now is      899.6 secs

     total energy              =   -4240.93895113 Ry
     estimated scf accuracy    <          1.1E-10 Ry

     iteration # 16     ecut=    80.00 Ry     beta= 0.70
     Davidson diagonalization with overlap
     c_bands:  1 eigenvalues not converged
     c_bands:  1 eigenvalues not converged
     ethr =  1.33E-13,  avg # of iterations =  9.2

     total cpu time spent up to now is      966.6 secs

     total energy              =   -4240.93895113 Ry
     estimated scf accuracy    <          2.8E-10 Ry

     iteration # 17     ecut=    80.00 Ry     beta= 0.70
     Davidson diagonalization with overlap
     ethr =  1.33E-13,  avg # of iterations =  3.9

     total cpu time spent up to now is     1008.3 secs

     End of self-consistent calculation

          k = 0.0000 0.0000 0.0000 ( 36359 PWs)   bands (ev):

   -44.1538 -44.1537 -22.2960 -22.2960 -22.1924 -22.1924 -22.0750 -22.0749
    -7.6554  -7.1671  -6.9889  -6.7763  -6.5555  -5.3213  -5.1148  -4.9049
    -4.8492  -3.8641   0.4467   0.6836   0.7748   1.0587   1.4905   1.5930
     2.4166   2.4877   2.6204   3.0028   3.0383   3.0834   3.1002   3.5025
     3.5606   3.6081   3.8598   4.0421   4.1087   4.2871   4.3191   4.6252
     5.1369   5.5555   5.5698   5.6178   5.8525   6.0404   6.3933   6.7975
     6.9362   7.2967

          k = 0.0000 0.0000 0.1485 ( 36415 PWs)   bands (ev):

   -44.1538 -44.1538 -22.2960 -22.2960 -22.1924 -22.1924 -22.0750 -22.0750
    -7.6162  -7.3231  -6.8783  -6.7843  -6.4376  -5.6945  -4.9248  -4.8609
    -4.7064  -3.9808   0.4885   0.7216   0.9109   1.0543   1.0551   2.0264
     2.1164   2.4412   2.5840   3.0394   3.0658   3.0881   3.3307   3.3656
     3.6701   3.7069   3.8401   4.0334   4.0611   4.3068   4.3315   4.6417
     4.9239   5.0593   5.7149   5.9187   6.0354   6.0610   6.5916   6.6956
     6.7709   7.2747

          k = 0.0000 0.0000-0.2971 ( 36410 PWs)   bands (ev):

   -44.1538 -44.1538 -22.2960 -22.2960 -22.1924 -22.1924 -22.0750 -22.0750
    -7.5015  -7.5015  -6.8108  -6.8108  -6.1152  -6.1152  -4.8896  -4.8896
    -4.2912  -4.2912   0.6714   0.6714   0.8550   0.8550   1.4466   1.4466
     2.5068   2.5068   2.6973   2.6973   3.0461   3.0461   3.3651   3.3651
     3.8285   3.8285   3.9074   3.9074   4.3182   4.3182   4.4215   4.4215
     4.7199   4.7199   5.9623   5.9623   6.2404   6.2404   6.3795   6.3795
     7.1595   7.1595

          k = 0.2541 0.0645 0.0000 ( 36396 PWs)   bands (ev):

   -44.1534 -44.1534 -22.2941 -22.2941 -22.2024 -22.2024 -22.0738 -22.0737
    -7.5418  -7.0839  -6.8868  -6.7303  -6.4962  -5.2869  -5.1030  -4.8641
    -4.8076  -4.0016   0.5341   0.8190   0.9118   1.1769   1.2850   1.4852
     1.9333   2.1045   2.2191   2.5256   2.5914   3.0114   3.4863   3.6562
     3.6745   3.7017   3.7465   3.8034   4.0255   4.1495   4.2143   4.2637
     4.4626   4.7102   5.6873   5.9944   6.2887   6.5422   6.6197   6.8354
     7.0019   7.1430

          k = 0.2541 0.0645 0.1485 ( 36423 PWs)   bands (ev):

   -44.1534 -44.1534 -22.2941 -22.2941 -22.2024 -22.2024 -22.0738 -22.0737
    -7.5037  -7.2222  -6.8083  -6.7372  -6.3670  -5.6392  -4.9027  -4.8214
    -4.7079  -4.0952   0.5634   0.8596   0.9790   0.9962   1.1398   1.6032
     1.8659   2.3136   2.4767   2.5419   2.5669   2.9184   3.2572   3.3010
     3.6536   3.6682   3.8290   3.8875   3.9987   4.0896   4.2259   4.2829
     4.6952   5.0421   5.8044   5.8176   6.2179   6.2746   6.4786   6.6736
     7.2628   7.2902

          k = 0.2541 0.0645-0.2971 ( 36436 PWs)   bands (ev):

   -44.1534 -44.1534 -22.2941 -22.2941 -22.2024 -22.2024 -22.0737 -22.0737
    -7.3924  -7.3924  -6.7589  -6.7589  -6.0440  -6.0440  -4.8556  -4.8556
    -4.3529  -4.3529   0.7029   0.7029   0.9630   0.9630   1.2914   1.2914
     2.2918   2.2918   2.5968   2.5968   2.6966   2.6966   3.0932   3.0932
     3.5893   3.5893   3.8574   3.8574   4.0286   4.0286   4.2787   4.2787
     5.1853   5.1853   5.7412   5.7412   6.0785   6.0785   6.4685   6.4685
     7.4378   7.4378

          k = 0.5081 0.1290 0.0000 ( 36499 PWs)   bands (ev):

   -44.1525 -44.1525 -22.2894 -22.2893 -22.2265 -22.2265 -22.0707 -22.0707
    -7.2244  -6.8882  -6.6006  -6.5934  -6.3022  -5.2280  -5.1200  -4.7567
    -4.7049  -4.4172   0.5148   0.7273   0.7295   1.1827   1.3014   1.5012
     1.6620   1.8272   1.9831   2.1468   2.1705   2.2877   2.4152   3.2379
     3.3525   3.4175   3.4603   3.5671   3.7666   3.8519   3.9612   4.1538
     4.6313   5.3207   5.3783   5.8678   5.9278   6.5396   6.5524   6.8417
     7.3813   7.5641

          k = 0.5081 0.1290 0.1485 ( 36476 PWs)   bands (ev):

   -44.1525 -44.1525 -22.2893 -22.2893 -22.2265 -22.2265 -22.0707 -22.0707
    -7.1907  -6.9641  -6.6114  -6.6029  -6.1509  -5.5079  -4.9256  -4.7334
    -4.6959  -4.4501   0.5135   0.7412   0.8814   1.0839   1.2209   1.4300
     1.4738   1.6711   2.0374   2.0701   2.3248   2.5484   2.8346   3.2684
     3.3452   3.4041   3.4742   3.5752   3.6382   3.7775   3.8471   4.2141
     4.4004   4.5895   6.0195   6.0873   6.2180   6.5474   6.5940   6.7187
     7.2258   7.4812

          k = 0.5081 0.1290-0.2971 ( 36466 PWs)   bands (ev):

   -44.1525 -44.1525 -22.2893 -22.2893 -22.2265 -22.2265 -22.0707 -22.0707
    -7.0952  -7.0952  -6.6118  -6.6118  -5.8491  -5.8491  -4.8050  -4.8050
    -4.5538  -4.5538   0.6171   0.6171   1.0951   1.0951   1.2493   1.2493
     1.3642   1.3642   2.0592   2.0592   2.7758   2.7758   3.1088   3.1088
     3.3353   3.3353   3.5469   3.5469   3.7037   3.7037   3.8361   3.8361
     4.3015   4.3015   6.2515   6.2515   6.5335   6.5335   6.7721   6.7721
     7.0881   7.0881

          k = 0.7622 0.1934 0.0000 ( 36521 PWs)   bands (ev):

   -44.1515 -44.1515 -22.2845 -22.2845 -22.2506 -22.2506 -22.0677 -22.0677
    -6.8379  -6.7180  -6.3397  -6.1550  -5.9515  -5.2893  -5.2736  -5.0570
    -4.6351  -4.6001   0.0056   0.2692   0.6549   1.1465   1.1566   1.2330
     1.4766   1.5911   1.9095   1.9548   2.2688   2.4236   2.5030   2.7445
     2.7715   3.2532   3.2913   3.3541   3.6404   3.6648   3.7787   3.8273
     3.9801   4.5665   5.7587   6.1699   6.2489   6.6831   6.7255   6.8201
     7.2031   7.5590

          k = 0.7622 0.1934 0.1485 ( 36503 PWs)   bands (ev):

   -44.1515 -44.1515 -22.2845 -22.2845 -22.2506 -22.2506 -22.0677 -22.0677
    -6.8201  -6.7344  -6.3338  -6.2324  -5.8219  -5.4187  -5.1951  -5.0774
    -4.6244  -4.6007   0.0784   0.3772   0.5355   0.9590   1.1586   1.2054
     1.4923   1.6658   1.7256   2.0856   2.1327   2.6427   2.6784   2.7932
     2.8627   3.1506   3.2722   3.3736   3.4746   3.6381   3.6788   3.8920
     4.0016   4.7331   5.3900   6.2414   6.5457   6.5897   6.7432   6.9011
     6.9781   7.4633

          k = 0.7622 0.1934-0.2971 ( 36522 PWs)   bands (ev):

   -44.1515 -44.1515 -22.2845 -22.2845 -22.2506 -22.2506 -22.0677 -22.0677
    -6.7767  -6.7767  -6.3052  -6.3052  -5.6120  -5.6120  -5.1288  -5.1288
    -4.6077  -4.6077   0.2742   0.2742   0.6953   0.6953   1.0698   1.0698
     1.5751   1.5751   1.9794   1.9794   2.3713   2.3713   2.7957   2.7957
     2.9924   2.9924   3.3988   3.3988   3.5693   3.5693   3.7921   3.7921
     4.1919   4.1919   5.9784   5.9784   6.3675   6.3675   6.8316   6.8316
     7.3033   7.3033

          k =-1.0162-0.2579 0.0000 ( 36506 PWs)   bands (ev):

   -44.1512 -44.1511 -22.2823 -22.2823 -22.2607 -22.2607 -22.0664 -22.0664
    -6.6853  -6.6652  -5.7840  -5.7731  -5.6758  -5.6633  -5.5349  -5.5346
    -4.5775  -4.5588   0.0822   0.1086   0.4313   0.4502   1.0127   1.0209
     1.4687   1.6752   2.2254   2.3466   2.3484   2.3487   2.7923   2.8274
     2.8294   2.9343   3.2571   3.2755   3.2870   3.4962   3.6004   3.6254
     3.8357   3.9317   6.3642   6.3941   6.4535   6.5383   6.9298   6.9971
     7.0084   7.0121

          k =-1.0162-0.2579 0.1485 ( 36506 PWs)   bands (ev):

   -44.1512 -44.1511 -22.2823 -22.2823 -22.2607 -22.2607 -22.0664 -22.0664
    -6.6818  -6.6675  -5.7902  -5.7810  -5.6844  -5.6788  -5.5124  -5.5107
    -4.5805  -4.5673  -0.0058   0.0030   0.6487   0.6535   1.0314   1.0579
     1.4639   1.5778   1.9227   1.9915   2.3662   2.3768   2.7513   2.7565
     2.9512   2.9698   3.1768   3.2221   3.5453   3.5514   3.7099   3.7331
     4.1073   4.1147   5.8549   5.8631   6.3850   6.4574   6.8991   6.9376
     7.2253   7.2490

          k =-1.0162-0.2579-0.2971 ( 36528 PWs)   bands (ev):

   -44.1512 -44.1512 -22.2823 -22.2823 -22.2607 -22.2607 -22.0664 -22.0664
    -6.6740  -6.6740  -5.7930  -5.7930  -5.6897  -5.6897  -5.4918  -5.4918
    -4.5797  -4.5797  -0.0611  -0.0611   0.9035   0.9035   1.0411   1.0411
     1.5368   1.5368   1.5900   1.5900   2.3680   2.3680   2.7869   2.7869
     2.9291   2.9291   3.2029   3.2029   3.5918   3.5918   3.7731   3.7731
     4.5954   4.5954   5.2738   5.2738   6.3510   6.3510   6.9375   6.9375
     7.2939   7.2939

          k = 0.5081 0.0000 0.0000 ( 36503 PWs)   bands (ev):

   -44.1525 -44.1525 -22.2894 -22.2893 -22.2265 -22.2265 -22.0707 -22.0707
    -7.2304  -6.8905  -6.5946  -6.5933  -6.2976  -5.2289  -5.1165  -4.7527
    -4.7101  -4.4168   0.5138   0.7240   0.7362   1.1502   1.2965   1.4806
     1.6668   1.8332   1.9950   2.1326   2.1351   2.2791   2.4235   3.2199
     3.3621   3.4041   3.5154   3.5906   3.7736   3.8379   4.0008   4.1912
     4.6335   5.3220   5.3842   5.9030   5.9070   6.5004   6.5005   6.8769
     7.4091   7.5714

          k = 0.5081 0.0000 0.1485 ( 36453 PWs)   bands (ev):

   -44.1525 -44.1525 -22.2893 -22.2893 -22.2265 -22.2265 -22.0707 -22.0707
    -7.1967  -6.9685  -6.6056  -6.5971  -6.1497  -5.5087  -4.9194  -4.7352
    -4.6967  -4.4509   0.5117   0.7360   0.8871   1.0857   1.1926   1.4328
     1.4472   1.6669   2.0322   2.0737   2.3265   2.5208   2.8270   3.2548
     3.3408   3.4339   3.4898   3.5947   3.6329   3.8273   3.8446   4.2492
     4.4157   4.5906   6.0201   6.1049   6.2225   6.4964   6.5587   6.7493
     7.2514   7.4855

          k = 0.5081 0.0000-0.2971 ( 36452 PWs)   bands (ev):

   -44.1525 -44.1525 -22.2893 -22.2893 -22.2265 -22.2265 -22.0707 -22.0707
    -7.1009  -7.1009  -6.6048  -6.6048  -5.8498  -5.8498  -4.8008  -4.8008
    -4.5565  -4.5565   0.6127   0.6127   1.0955   1.0955   1.2786   1.2786
     1.3108   1.3108   2.0590   2.0590   2.7668   2.7668   3.0862   3.0862
     3.3290   3.3290   3.6010   3.6010   3.7121   3.7121   3.8394   3.8394
     4.3260   4.3260   6.2670   6.2670   6.4990   6.4990   6.7867   6.7867
     7.0900   7.0900

          k = 0.7622 0.0645 0.0000 ( 36505 PWs)   bands (ev):

   -44.1515 -44.1515 -22.2845 -22.2845 -22.2506 -22.2506 -22.0677 -22.0677
    -6.8473  -6.7162  -6.3303  -6.1575  -5.9507  -5.2844  -5.2743  -5.0566
    -4.6287  -4.6078  -0.0003   0.2809   0.6796   1.1448   1.1807   1.2472
     1.4337   1.5470   1.8868   1.9674   2.2256   2.3982   2.4866   2.7175
     2.7541   3.3098   3.3239   3.3602   3.6039   3.6602   3.8310   3.8515
     3.9985   4.6095   5.7572   6.1856   6.2118   6.6505   6.7765   6.7829
     7.2264   7.5626

          k = 0.7622 0.0645 0.1485 ( 36509 PWs)   bands (ev):

   -44.1515 -44.1515 -22.2845 -22.2845 -22.2506 -22.2506 -22.0677 -22.0677
    -6.8285  -6.7351  -6.3247  -6.2305  -5.8234  -5.4191  -5.1917  -5.0765
    -4.6200  -4.6062   0.0760   0.3841   0.5450   0.9816   1.1581   1.2177
     1.4543   1.6622   1.7518   2.0144   2.0593   2.6547   2.6701   2.7622
     2.8514   3.1511   3.3394   3.3937   3.4365   3.6563   3.7059   3.9093
     4.0485   4.7323   5.4170   6.2253   6.5495   6.5780   6.7604   6.8985
     6.9586   7.4819

          k = 0.7622 0.0645-0.2971 ( 36472 PWs)   bands (ev):

   -44.1515 -44.1515 -22.2845 -22.2845 -22.2506 -22.2506 -22.0677 -22.0677
    -6.7820  -6.7820  -6.2984  -6.2984  -5.6138  -5.6138  -5.1264  -5.1264
    -4.6082  -4.6082   0.2776   0.2776   0.6913   0.6913   1.0956   1.0956
     1.5695   1.5695   1.9291   1.9291   2.3356   2.3356   2.7892   2.7892
     2.9884   2.9884   3.4659   3.4659   3.5657   3.5657   3.7840   3.7840
     4.2164   4.2164   6.0024   6.0024   6.3690   6.3690   6.7971   6.7971
     7.3295   7.3295

          k = 1.0162 0.1290 0.0000 ( 36514 PWs)   bands (ev):

   -44.1512 -44.1511 -22.2823 -22.2823 -22.2607 -22.2607 -22.0664 -22.0664
    -6.6853  -6.6652  -5.7835  -5.7737  -5.6758  -5.6633  -5.5355  -5.5340
    -4.5775  -4.5588   0.0763   0.1146   0.4255   0.4562   1.0076   1.0277
     1.4737   1.6665   2.2291   2.3319   2.3404   2.3554   2.7940   2.8235
     2.8603   2.9297   3.2300   3.2875   3.3017   3.4934   3.5840   3.6389
     3.8200   3.9429   6.3606   6.3989   6.4487   6.5437   6.9403   6.9998
     7.0032   7.0142

          k = 1.0162 0.1290 0.1485 ( 36524 PWs)   bands (ev):

   -44.1512 -44.1512 -22.2823 -22.2823 -22.2607 -22.2607 -22.0664 -22.0664
    -6.6818  -6.6675  -5.7898  -5.7814  -5.6844  -5.6787  -5.5128  -5.5103
    -4.5805  -4.5673  -0.0078   0.0047   0.6476   0.6552   1.0355   1.0547
     1.4682   1.5751   1.9282   1.9813   2.3590   2.3729   2.7060   2.8109
     2.9636   2.9884   3.1507   3.2241   3.5303   3.5899   3.7004   3.7100
     4.0949   4.1331   5.8439   5.8764   6.3823   6.4599   6.9060   6.9365
     7.2288   7.2457

          k = 1.0162 0.1290-0.2971 ( 36516 PWs)   bands (ev):

   -44.1512 -44.1512 -22.2823 -22.2823 -22.2607 -22.2607 -22.0664 -22.0664
    -6.6740  -6.6740  -5.7930  -5.7930  -5.6897  -5.6897  -5.4918  -5.4918
    -4.5797  -4.5797  -0.0612  -0.0612   0.9027   0.9027   1.0433   1.0433
     1.5350   1.5350   1.5923   1.5923   2.3577   2.3577   2.7700   2.7700
     2.9796   2.9796   3.1780   3.1780   3.5983   3.5983   3.7652   3.7652
     4.5958   4.5958   5.2757   5.2757   6.3507   6.3507   6.9399   6.9399
     7.2938   7.2938

          k =-0.7622-0.3224 0.0000 ( 36511 PWs)   bands (ev):

   -44.1515 -44.1515 -22.2845 -22.2845 -22.2506 -22.2506 -22.0677 -22.0677
    -6.8229  -6.7218  -6.3531  -6.1513  -5.9528  -5.2962  -5.2725  -5.0574
    -4.6406  -4.5929   0.0142   0.2533   0.6219   1.1198   1.1729   1.2137
     1.4996   1.6598   1.9387   1.9561   2.3452   2.4417   2.5276   2.7749
     2.7974   3.1688   3.2630   3.3789   3.5958   3.6560   3.7791   3.7996
     3.9452   4.4970   5.7612   6.1635   6.2934   6.6442   6.7328   6.8873
     7.1642   7.5594

          k =-0.7622-0.3224 0.1485 ( 36492 PWs)   bands (ev):

   -44.1515 -44.1515 -22.2845 -22.2845 -22.2506 -22.2506 -22.0677 -22.0677
    -6.8068  -6.7343  -6.3467  -6.2354  -5.8199  -5.4183  -5.1999  -5.0787
    -4.6280  -4.5956   0.0813   0.3689   0.5208   0.9332   1.1602   1.1925
     1.5449   1.6647   1.6976   2.1885   2.2372   2.6316   2.6879   2.8251
     2.8758   3.1715   3.1812   3.3575   3.4792   3.6245   3.6530   3.8640
     3.9228   4.7331   5.3538   6.2676   6.5246   6.6005   6.7296   6.9282
     7.0011   7.4310

          k =-0.7622-0.3224-0.2971 ( 36508 PWs)   bands (ev):

   -44.1515 -44.1515 -22.2845 -22.2845 -22.2506 -22.2506 -22.0677 -22.0677
    -6.7689  -6.7689  -6.3150  -6.3150  -5.6094  -5.6094  -5.1324  -5.1324
    -4.6071  -4.6071   0.2691   0.2691   0.7010   0.7010   1.0402   1.0402
     1.5805   1.5805   2.0380   2.0380   2.4390   2.4390   2.8083   2.8083
     2.9965   2.9965   3.3062   3.3062   3.5738   3.5738   3.7891   3.7891
     4.1593   4.1593   5.9467   5.9467   6.3639   6.3639   6.8903   6.8903
     7.2586   7.2586

          k =-0.5081-0.2579 0.0000 ( 36480 PWs)   bands (ev):

   -44.1525 -44.1525 -22.2894 -22.2893 -22.2265 -22.2265 -22.0707 -22.0707
    -7.2090  -6.8831  -6.6179  -6.5905  -6.3140  -5.2258  -5.1287  -4.7630
    -4.6959  -4.4182   0.5194   0.7139   0.7284   1.2768   1.3123   1.5527
     1.6556   1.8200   1.9569   2.1793   2.2388   2.3037   2.3984   3.2853
     3.3385   3.3496   3.4413   3.4777   3.7369   3.8607   3.9034   4.0786
     4.6228   5.3135   5.3666   5.7840   5.9810   6.6384   6.6725   6.7573
     7.3091   7.5577

          k =-0.5081-0.2579 0.1485 ( 36485 PWs)   bands (ev):

   -44.1525 -44.1525 -22.2894 -22.2893 -22.2265 -22.2265 -22.0707 -22.0707
    -7.1755  -6.9532  -6.6269  -6.6164  -6.1538  -5.5059  -4.9396  -4.7306
    -4.6933  -4.4481   0.5185   0.7496   0.8677   1.0802   1.3002   1.4294
     1.5368   1.6785   2.0487   2.0663   2.3219   2.6077   2.8522   3.2970
     3.3117   3.3563   3.4603   3.4938   3.6348   3.7338   3.8274   4.1399
     4.3556   4.5865   5.9971   6.0643   6.2105   6.6408   6.6669   6.6908
     7.1607   7.4740

          k =-0.5081-0.2579-0.2971 ( 36478 PWs)   bands (ev):

   -44.1525 -44.1525 -22.2893 -22.2893 -22.2265 -22.2265 -22.0707 -22.0707
    -7.0808  -7.0808  -6.6295  -6.6295  -5.8475  -5.8475  -4.8149  -4.8149
    -4.5475  -4.5475   0.6271   0.6271   1.0935   1.0935   1.2237   1.2237
     1.4563   1.4563   2.0579   2.0579   2.8002   2.8002   3.1660   3.1660
     3.3475   3.3475   3.4073   3.4073   3.6944   3.6944   3.8244   3.8244
     4.2408   4.2408   6.2131   6.2131   6.6066   6.6066   6.7446   6.7446
     7.0885   7.0885

          k =-0.2541-0.1934 0.0000 ( 36410 PWs)   bands (ev):

   -44.1534 -44.1534 -22.2941 -22.2941 -22.2024 -22.2024 -22.0738 -22.0737
    -7.5308  -7.0740  -6.8847  -6.7445  -6.5125  -5.2857  -5.1103  -4.8714
    -4.7982  -4.0026   0.5647   0.8928   0.9211   1.2020   1.3168   1.4857
     1.9554   2.1238   2.2237   2.4902   2.5719   3.0801   3.3966   3.5522
     3.6023   3.6908   3.7822   3.8064   3.9485   4.1423   4.1903   4.2267
     4.4017   4.6821   5.7368   6.0107   6.3329   6.5888   6.6041   6.8530
     6.9969   7.0667

          k =-0.2541-0.1934 0.1485 ( 36427 PWs)   bands (ev):

   -44.1534 -44.1534 -22.2941 -22.2941 -22.2024 -22.2024 -22.0738 -22.0737
    -7.4927  -7.2115  -6.8158  -6.7510  -6.3747  -5.6382  -4.9207  -4.8166
    -4.7012  -4.0950   0.5888   0.9153   1.0073   1.0327   1.1630   1.6202
     1.8678   2.3156   2.4945   2.5057   2.5705   2.9125   3.2600   3.3346
     3.5274   3.6474   3.7286   3.8856   3.9708   4.0726   4.1803   4.2290
     4.6796   5.0241   5.7864   5.8352   6.1893   6.3255   6.5580   6.6869
     7.2182   7.2834

          k =-0.2541-0.1934-0.2971 ( 36422 PWs)   bands (ev):

   -44.1534 -44.1534 -22.2941 -22.2941 -22.2024 -22.2024 -22.0737 -22.0737
    -7.3814  -7.3814  -6.7721  -6.7721  -6.0447  -6.0447  -4.8618  -4.8618
    -4.3499  -4.3499   0.7213   0.7213   1.0288   1.0288   1.3008   1.3008
     2.2909   2.2909   2.5672   2.5672   2.7084   2.7084   3.1239   3.1239
     3.5131   3.5131   3.8008   3.8008   4.0201   4.0201   4.2219   4.2219
     5.1817   5.1817   5.7014   5.7014   6.0695   6.0695   6.5575   6.5575
     7.4118   7.4119

          k = 0.0000-0.1290 0.0000 ( 36417 PWs)   bands (ev):

   -44.1538 -44.1538 -22.2960 -22.2960 -22.1924 -22.1924 -22.0750 -22.0749
    -7.6496  -7.1609  -6.9879  -6.7841  -6.5653  -5.3208  -5.1186  -4.9104
    -4.8428  -3.8647   0.4716   0.7258   0.7805   1.0636   1.5149   1.6034
     2.4201   2.4884   2.6274   3.0106   3.0339   3.0816   3.1381   3.4561
     3.4935   3.5974   3.7869   4.0153   4.1087   4.2348   4.2691   4.6263
     5.1290   5.5095   5.5957   5.6250   5.8663   6.0835   6.4457   6.7691
     6.9369   7.2779

          k = 0.0000-0.1290 0.1485 ( 36419 PWs)   bands (ev):

   -44.1538 -44.1538 -22.2960 -22.2960 -22.1924 -22.1924 -22.0750 -22.0750
    -7.6105  -7.3173  -6.8813  -6.7918  -6.4431  -5.6941  -4.9355  -4.8574
    -4.7028  -3.9808   0.5100   0.7638   0.9266   1.0463   1.0805   2.0348
     2.1316   2.4450   2.5903   3.0351   3.0630   3.1102   3.2880   3.3409
     3.6667   3.6981   3.7644   3.9812   4.0595   4.2602   4.2848   4.6428
     4.9210   5.0461   5.7229   5.9218   6.0493   6.0778   6.5798   6.7344
     6.7718   7.2606

          k = 0.0000-0.1290-0.2971 ( 36464 PWs)   bands (ev):

   -44.1538 -44.1538 -22.2960 -22.2960 -22.1924 -22.1924 -22.0750 -22.0750
    -7.4957  -7.4957  -6.8176  -6.8176  -6.1162  -6.1162  -4.8928  -4.8928
    -4.2897  -4.2897   0.6988   0.6988   0.8723   0.8723   1.4560   1.4560
     2.5116   2.5116   2.7078   2.7078   3.0424   3.0424   3.3292   3.3292
     3.7973   3.7973   3.9020   3.9020   4.2337   4.2337   4.4341   4.4341
     4.7201   4.7201   5.9505   5.9505   6.2643   6.2643   6.3810   6.3810
     7.1633   7.1633

          k = 1.0162 0.0000 0.0000 ( 36499 PWs)   bands (ev):

   -44.1511 -44.1511 -22.2823 -22.2823 -22.2607 -22.2607 -22.0664 -22.0664
    -6.6853  -6.6652  -5.7829  -5.7743  -5.6758  -5.6633  -5.5358  -5.5337
    -4.5775  -4.5588   0.0719   0.1192   0.4213   0.4605   1.0050   1.0320
     1.4794   1.6572   2.2334   2.3158   2.3379   2.3589   2.7970   2.8162
     2.9074   2.9100   3.2185   3.2988   3.3018   3.4854   3.5715   3.6581
     3.8004   3.9532   6.3577   6.4029   6.4443   6.5487   6.9536   6.9953
     7.0025   7.0164

          k = 1.0162 0.0000 0.1485 ( 36485 PWs)   bands (ev):

   -44.1511 -44.1511 -22.2823 -22.2823 -22.2607 -22.2607 -22.0664 -22.0664
    -6.6818  -6.6675  -5.7894  -5.7818  -5.6845  -5.6787  -5.5131  -5.5100
    -4.5805  -4.5673  -0.0095   0.0059   0.6469   0.6566   1.0432   1.0481
     1.4729   1.5720   1.9369   1.9676   2.3537   2.3677   2.6907   2.8295
     2.9731   3.0351   3.1056   3.2252   3.5282   3.6356   3.6642   3.6939
     4.0899   4.1438   5.8387   5.8839   6.3798   6.4622   6.9144   6.9338
     7.2358   7.2389

          k = 1.0162 0.0000-0.2971 ( 36514 PWs)   bands (ev):

   -44.1512 -44.1512 -22.2823 -22.2823 -22.2607 -22.2607 -22.0664 -22.0664
    -6.6740  -6.6740  -5.7930  -5.7930  -5.6897  -5.6897  -5.4918  -5.4918
    -4.5797  -4.5797  -0.0614  -0.0614   0.9020   0.9020   1.0456   1.0456
     1.5333   1.5333   1.5944   1.5944   2.3477   2.3477   2.7585   2.7585
     3.0404   3.0404   3.1371   3.1371   3.6054   3.6054   3.7567   3.7567
     4.5961   4.5961   5.2776   5.2776   6.3504   6.3504   6.9423   6.9423
     7.2938   7.2938

          k = 1.2703 0.0645 0.0000 ( 36468 PWs)   bands (ev):

   -44.1515 -44.1515 -22.2845 -22.2845 -22.2506 -22.2506 -22.0677 -22.0677
    -6.8106  -6.7261  -6.3626  -6.1487  -5.9538  -5.3011  -5.2718  -5.0578
    -4.6433  -4.5889   0.0204   0.2423   0.5997   1.1103   1.1842   1.1990
     1.5034   1.7084   1.9286   1.9991   2.4133   2.4398   2.5461   2.7907
     2.8165   3.0936   3.2720   3.4466   3.5458   3.5509   3.7841   3.8409
     3.9146   4.4384   5.7631   6.1644   6.3252   6.5866   6.7713   6.9428
     7.1284   7.5676

          k = 1.2703 0.0645 0.1485 ( 36490 PWs)   bands (ev):

   -44.1515 -44.1515 -22.2845 -22.2845 -22.2506 -22.2506 -22.0677 -22.0677
    -6.7961  -6.7355  -6.3560  -6.2375  -5.8184  -5.4181  -5.2032  -5.0796
    -4.6298  -4.5927   0.0829   0.3643   0.5095   0.9183   1.1594   1.1878
     1.5951   1.6468   1.6820   2.2658   2.3142   2.6272   2.6934   2.8419
     2.8844   3.1029   3.2149   3.3641   3.4261   3.5822   3.7193   3.8275
     3.8472   4.7321   5.3297   6.2906   6.4938   6.6073   6.7299   6.9607
     7.0155   7.4037

          k = 1.2703 0.0645-0.2971 ( 36480 PWs)   bands (ev):

   -44.1515 -44.1515 -22.2845 -22.2845 -22.2506 -22.2506 -22.0677 -22.0677
    -6.7631  -6.7631  -6.3222  -6.3222  -5.6076  -5.6076  -5.1349  -5.1349
    -4.6067  -4.6067   0.2652   0.2652   0.7049   0.7049   1.0231   1.0231
     1.5841   1.5841   2.0694   2.0694   2.5003   2.5003   2.8323   2.8323
     2.9911   2.9911   3.2310   3.2310   3.5814   3.5814   3.7768   3.7768
     4.1383   4.1383   5.9255   5.9255   6.3607   6.3607   6.9428   6.9428
     7.2177   7.2177

          k =-0.5081-0.3869 0.0000 ( 36463 PWs)   bands (ev):

   -44.1525 -44.1525 -22.2894 -22.2893 -22.2265 -22.2265 -22.0707 -22.0707
    -7.1922  -6.8795  -6.6343  -6.5876  -6.3266  -5.2237  -5.1375  -4.7667
    -4.6894  -4.4192   0.5271   0.6993   0.7202   1.3220   1.4147   1.5939
     1.6429   1.8250   1.9288   2.2217   2.2687   2.3086   2.4013   3.2149
     3.3289   3.3606   3.3718   3.4875   3.7006   3.7722   3.8812   4.0665
     4.6117   5.2966   5.3574   5.7040   6.0400   6.6722   6.7512   6.7884
     7.2214   7.5659

          k =-0.5081-0.3869 0.1485 ( 36477 PWs)   bands (ev):

   -44.1525 -44.1525 -22.2894 -22.2893 -22.2265 -22.2265 -22.0707 -22.0707
    -7.1589  -6.9421  -6.6420  -6.6319  -6.1565  -5.5039  -4.9528  -4.7295
    -4.6898  -4.4462   0.5247   0.7525   0.8541   1.0767   1.4037   1.4365
     1.5856   1.6893   2.0594   2.0733   2.3127   2.6552   2.8719   3.1852
     3.3283   3.3545   3.3934   3.4948   3.6403   3.7107   3.7729   4.1050
     4.2917   4.5836   5.9425   6.0726   6.2068   6.5752   6.7684   6.8081
     7.0812   7.4785

          k =-0.5081-0.3869-0.2971 ( 36492 PWs)   bands (ev):

   -44.1525 -44.1525 -22.2893 -22.2893 -22.2265 -22.2265 -22.0707 -22.0707
    -7.0653  -7.0653  -6.6483  -6.6483  -5.8457  -5.8457  -4.8244  -4.8244
    -4.5417  -4.5417   0.6363   0.6363   1.0906   1.0906   1.2085   1.2085
     1.5540   1.5540   2.0516   2.0516   2.8275   2.8275   3.2030   3.2030
     3.2834   3.2834   3.3697   3.3697   3.6743   3.6743   3.8124   3.8124
     4.1785   4.1785   6.1753   6.1753   6.6355   6.6355   6.7541   6.7541
     7.0995   7.0995

          k =-0.2541-0.3224 0.0000 ( 36485 PWs)   bands (ev):

   -44.1534 -44.1534 -22.2941 -22.2941 -22.2024 -22.2024 -22.0738 -22.0737
    -7.5145  -7.0602  -6.8818  -6.7631  -6.5375  -5.2840  -5.1210  -4.8767
    -4.7896  -4.0041   0.5916   0.9352   1.0201   1.2512   1.3891   1.4835
     1.9901   2.1554   2.2256   2.4085   2.5180   3.1983   3.2572   3.3675
     3.5489   3.6801   3.7457   3.8332   3.9294   4.0701   4.1476   4.1852
     4.3961   4.6191   5.8154   6.0259   6.3716   6.5429   6.6896   6.8790
     6.9418   7.0076

          k =-0.2541-0.3224 0.1485 ( 36445 PWs)   bands (ev):

   -44.1534 -44.1534 -22.2941 -22.2941 -22.2024 -22.2024 -22.0738 -22.0737
    -7.4764  -7.1955  -6.8283  -6.7702  -6.3855  -5.6367  -4.9421  -4.8132
    -4.6924  -4.0946   0.6087   0.9587   1.0537   1.1315   1.2378   1.6454
     1.8755   2.3098   2.4251   2.4974   2.5741   2.8983   3.2842   3.3368
     3.3574   3.5169   3.7491   3.8813   3.9208   4.0657   4.0977   4.1569
     4.6850   4.9893   5.7698   5.8598   6.1789   6.3156   6.6605   6.7227
     7.1638   7.2734

          k =-0.2541-0.3224-0.2971 ( 36442 PWs)   bands (ev):

   -44.1534 -44.1534 -22.2941 -22.2941 -22.2024 -22.2024 -22.0737 -22.0737
    -7.3651  -7.3651  -6.7919  -6.7919  -6.0455  -6.0455  -4.8705  -4.8705
    -4.3456  -4.3456   0.7322   0.7322   1.1598   1.1598   1.3148   1.3148
     2.2849   2.2849   2.5073   2.5073   2.7181   2.7181   3.1794   3.1794
     3.3411   3.3411   3.7925   3.7925   4.0104   4.0104   4.1423   4.1423
     5.1798   5.1798   5.6591   5.6591   6.0416   6.0416   6.6653   6.6653
     7.3775   7.3775

          k = 0.0000-0.2579 0.0000 ( 36445 PWs)   bands (ev):

   -44.1538 -44.1538 -22.2960 -22.2960 -22.1924 -22.1924 -22.0750 -22.0749
    -7.6352  -7.1456  -6.9852  -6.8023  -6.5907  -5.3198  -5.1284  -4.9181
    -4.8326  -3.8663   0.5179   0.7945   0.8417   1.1047   1.5697   1.6276
     2.4287   2.4880   2.6452   3.0226   3.0431   3.0771   3.2384   3.2633
     3.2708   3.5713   3.7250   3.9856   4.0950   4.1086   4.1442   4.6292
     5.1102   5.4429   5.6424   5.6631   5.9001   6.1463   6.5442   6.6871
     6.9384   7.2400

          k = 0.0000-0.2579 0.1485 ( 36452 PWs)   bands (ev):

   -44.1538 -44.1538 -22.2960 -22.2960 -22.1924 -22.1924 -22.0750 -22.0750
    -7.5960  -7.3025  -6.8900  -6.8099  -6.4564  -5.6933  -4.9572  -4.8527
    -4.6946  -3.9808   0.5457   0.8712   0.9804   1.0820   1.1094   2.0574
     2.1657   2.4545   2.6061   3.0244   3.0562   3.1090   3.1865   3.2113
     3.6378   3.6727   3.6766   3.9256   4.0553   4.1386   4.1729   4.6456
     4.9139   5.0269   5.7497   5.9297   6.0752   6.0966   6.5445   6.7740
     6.8056   7.2243

          k = 0.0000-0.2579-0.2971 ( 36454 PWs)   bands (ev):

   -44.1538 -44.1538 -22.2960 -22.2960 -22.1924 -22.1924 -22.0750 -22.0750
    -7.4811  -7.4811  -6.8349  -6.8349  -6.1183  -6.1183  -4.9006  -4.9006
    -4.2862  -4.2862   0.7323   0.7323   0.9611   0.9611   1.4795   1.4795
     2.5237   2.5237   2.7257   2.7257   3.0332   3.0332   3.1828   3.1828
     3.7690   3.7690   3.8888   3.8888   4.0956   4.0956   4.4269   4.4269
     4.7207   4.7207   5.9227   5.9227   6.3042   6.3042   6.3850   6.3850
     7.1531   7.1531

          k = 1.5243 0.0000 0.0000 ( 36439 PWs)   bands (ev):

   -44.1525 -44.1524 -22.2894 -22.2893 -22.2265 -22.2265 -22.0707 -22.0707
    -7.1848  -6.8785  -6.6408  -6.5864  -6.3320  -5.2227  -5.1411  -4.7677
    -4.6871  -4.4197   0.5314   0.6936   0.7142   1.3257   1.5471   1.5551
     1.6223   1.8223   1.9322   2.2467   2.2601   2.3027   2.4154   3.1627
     3.3044   3.3420   3.3854   3.5619   3.6650   3.6890   3.8754   4.0806
     4.6067   5.2850   5.3541   5.6732   6.0668   6.6360   6.8156   6.8279
     7.1749   7.5656

          k = 1.5243 0.0000 0.1485 ( 36476 PWs)   bands (ev):

   -44.1525 -44.1525 -22.2894 -22.2893 -22.2265 -22.2265 -22.0707 -22.0707
    -7.1516  -6.9376  -6.6469  -6.6400  -6.1576  -5.5031  -4.9580  -4.7295
    -4.6882  -4.4454   0.5276   0.7523   0.8484   1.0753   1.4243   1.4954
     1.5656   1.7070   2.0710   2.0755   2.3035   2.6680   2.8846   3.1329
     3.2858   3.3684   3.3803   3.5787   3.5933   3.7019   3.7279   4.1168
     4.2508   4.5825   5.9163   6.0799   6.2060   6.5467   6.8134   6.8705
     7.0327   7.4896

          k = 1.5243 0.0000-0.2971 ( 36508 PWs)   bands (ev):

   -44.1525 -44.1525 -22.2893 -22.2893 -22.2265 -22.2265 -22.0707 -22.0707
    -7.0584  -7.0584  -6.6566  -6.6566  -5.8450  -5.8450  -4.8283  -4.8283
    -4.5393  -4.5393   0.6400   0.6400   1.0891   1.0891   1.2034   1.2034
     1.6003   1.6003   2.0458   2.0458   2.8398   2.8398   3.1607   3.1607
     3.2990   3.2990   3.3745   3.3745   3.6565   3.6565   3.8087   3.8087
     4.1528   4.1528   6.1600   6.1600   6.6302   6.6302   6.7717   6.7717
     7.1088   7.1088

          k =-0.2541-0.4514 0.0000 ( 36444 PWs)   bands (ev):

   -44.1534 -44.1534 -22.2941 -22.2941 -22.2024 -22.2024 -22.0738 -22.0737
    -7.5023  -7.0509  -6.8797  -6.7748  -6.5570  -5.2828  -5.1289  -4.8783
    -4.7854  -4.0052   0.5999   0.9459   1.1319   1.2889   1.4783   1.4801
     2.0287   2.1807   2.2158   2.3151   2.4408   3.1552   3.2419   3.3051
     3.5515   3.6690   3.7420   3.7620   3.9325   4.0225   4.1153   4.1590
     4.4545   4.5362   5.8803   6.0333   6.3901   6.5041   6.7431   6.8720
     6.8997   6.9978

          k =-0.2541-0.4514 0.1485 ( 36461 PWs)   bands (ev):

   -44.1534 -44.1534 -22.2941 -22.2941 -22.2024 -22.2024 -22.0738 -22.0737
    -7.4641  -7.1835  -6.8388  -6.7837  -6.3929  -5.6355  -4.9555  -4.8120
    -4.6867  -4.0944   0.6136   0.9756   1.0660   1.2669   1.3166   1.6666
     1.8910   2.2852   2.3303   2.4673   2.5840   2.8853   3.2274   3.2411
     3.3717   3.5232   3.7764   3.8357   3.8938   3.9979   4.0857   4.1200
     4.7045   4.9564   5.7612   5.8798   6.1888   6.2688   6.7283   6.7477
     7.1331   7.2663

          k =-0.2541-0.4514-0.2971 ( 36490 PWs)   bands (ev):

   -44.1534 -44.1534 -22.2941 -22.2941 -22.2024 -22.2024 -22.0737 -22.0737
    -7.3528  -7.3528  -6.8067  -6.8067  -6.0459  -6.0459  -4.8767  -4.8767
    -4.3426  -4.3426   0.7337   0.7337   1.2781   1.2781   1.3339   1.3339
     2.2636   2.2636   2.4457   2.4457   2.7229   2.7229   3.1998   3.1998
     3.2499   3.2499   3.7885   3.7885   4.0007   4.0007   4.0943   4.0943
     5.1803   5.1803   5.6346   5.6346   6.0159   6.0159   6.7302   6.7302
     7.3553   7.3553

          k = 0.0000-0.3869 0.0000 ( 36477 PWs)   bands (ev):

   -44.1538 -44.1538 -22.2960 -22.2960 -22.1924 -22.1924 -22.0750 -22.0749
    -7.6200  -7.1303  -6.9826  -6.8186  -6.6190  -5.3187  -5.1389  -4.9212
    -4.8262  -3.8679   0.5416   0.8091   1.0007   1.1701   1.6351   1.6503
     2.4377   2.4802   2.6644   2.9749   3.0104   3.0324   3.0727   3.0943
     3.3776   3.5445   3.7481   3.9133   3.9694   4.0089   4.1083   4.6324
     5.0918   5.4056   5.6600   5.7404   5.9359   6.1824   6.5841   6.6142
     6.9398   7.2099

          k = 0.0000-0.3869 0.1485 ( 36452 PWs)   bands (ev):

   -44.1538 -44.1538 -22.2960 -22.2960 -22.1924 -22.1924 -22.0750 -22.0750
    -7.5808  -7.2870  -6.9008  -6.8274  -6.4696  -5.6923  -4.9758  -4.8504
    -4.6872  -3.9807   0.5588   0.9845   1.0278   1.1364   1.1998   2.0834
     2.1943   2.4643   2.6228   2.9044   2.9408   3.0129   3.0491   3.2909
     3.6150   3.6549   3.6742   3.9083   4.0071   4.0509   4.0589   4.6487
     4.9069   5.0180   5.7861   5.9382   6.0884   6.0975   6.5015   6.7762
     6.8516   7.1890

          k = 0.0000-0.3869-0.2971 ( 36454 PWs)   bands (ev):

   -44.1538 -44.1538 -22.2960 -22.2960 -22.1924 -22.1924 -22.0750 -22.0750
    -7.4657  -7.4657  -6.8533  -6.8533  -6.1201  -6.1201  -4.9084  -4.9084
    -4.2827  -4.2827   0.7357   0.7357   1.1097   1.1097   1.5053   1.5053
     2.5362   2.5362   2.6915   2.6915   3.0186   3.0186   3.0235   3.0235
     3.7819   3.7819   3.8755   3.8755   3.9864   3.9864   4.4137   4.4137
     4.7215   4.7215   5.8922   5.8922   6.3289   6.3289   6.3892   6.3892
     7.1275   7.1275

          k =-2.0325 0.0000 0.0000 ( 36452 PWs)   bands (ev):

   -44.1538 -44.1538 -22.2960 -22.2960 -22.1924 -22.1924 -22.0750 -22.0749
    -7.6134  -7.1240  -6.9815  -6.8244  -6.6317  -5.3182  -5.1434  -4.9216
    -4.8244  -3.8686   0.5455   0.8154   1.1100   1.1727   1.6592   1.6764
     2.4415   2.4720   2.6727   2.8297   2.9350   3.0050   3.0709   3.1227
     3.4732   3.5332   3.7726   3.7997   3.9476   3.9581   4.1081   4.6338
     5.0843   5.3949   5.6672   5.7768   5.9526   6.1931   6.5335   6.6371
     6.9403   7.1986

          k =-2.0325 0.0000 0.1485 ( 36456 PWs)   bands (ev):

   -44.1538 -44.1538 -22.2960 -22.2960 -22.1924 -22.1924 -22.0750 -22.0750
    -7.5741  -7.2803  -6.9060  -6.8345  -6.4750  -5.6918  -4.9830  -4.8498
    -4.6843  -3.9807   0.5592   1.0253   1.0388   1.1761   1.2663   2.0947
     2.2052   2.4685   2.6301   2.7786   2.8348   3.0079   3.0460   3.3512
     3.5943   3.6458   3.7002   3.8810   3.9562   4.0162   4.0491   4.6500
     4.9039   5.0164   5.8054   5.9419   6.0763   6.1063   6.4823   6.7771
     6.8645   7.1757

          k =-2.0325 0.0000-0.2971 ( 36460 PWs)   bands (ev):

   -44.1538 -44.1538 -22.2960 -22.2960 -22.1924 -22.1924 -22.0750 -22.0750
    -7.4590  -7.4590  -6.8612  -6.8612  -6.1208  -6.1208  -4.9117  -4.9117
    -4.2813  -4.2813   0.7335   0.7335   1.1886   1.1886   1.5176   1.5176
     2.5416   2.5416   2.6302   2.6302   2.9807   2.9807   3.0193   3.0193
     3.7878   3.7878   3.8699   3.8699   3.9482   3.9482   4.4087   4.4087
     4.7219   4.7219   5.8782   5.8782   6.3364   6.3364   6.3910   6.3910
     7.1149   7.1149

     the Fermi energy is     5.3087 ev

!    total energy              =   -4240.93895113 Ry

     total all-electron energy =   -150287.632646 Ry
     estimated scf accuracy    <          2.2E-11 Ry
     smearing contrib. (-TS)   =      -0.00000566 Ry
     internal energy E=F+TS    =   -4240.93894548 Ry

     The total energy is F=E-TS. E is the sum of the following terms:
     one-electron contribution =    -165.07009302 Ry
     hartree contribution      =     116.00490885 Ry
     xc contribution           =    -201.42072219 Ry
     ewald contribution        =    -222.94333714 Ry
     one-center paw contrib.   =   -3767.50970198 Ry

     convergence has been achieved in  17 iterations

     Forces acting on atoms (cartesian axes, Ry/au):

     atom    1 type  1   force =     0.00000000   -0.01912985    0.00000000
     atom    2 type  1   force =     0.00000000    0.01912985    0.00000000
     atom    3 type  2   force =     0.00000000    0.00136534    0.00000000
     atom    4 type  2   force =     0.00000000   -0.00136534    0.00000000
     atom    5 type  2   force =     0.00000000    0.00415032    0.00025852
     atom    6 type  2   force =    -0.00000000   -0.00415032   -0.00025852
     atom    7 type  2   force =     0.00000000    0.00415032   -0.00025852
     atom    8 type  2   force =     0.00000000   -0.00415032    0.00025852
     atom    9 type  2   force =    -0.00000000    0.01850024    0.01525181
     atom   10 type  2   force =    -0.00000000   -0.01850024   -0.01525181
     atom   11 type  2   force =     0.00000000    0.01850024   -0.01525181
     atom   12 type  2   force =     0.00000000   -0.01850024    0.01525181

     Total force =     0.055716     Total SCF correction =     0.000007


     Computing stress (Cartesian axis) and pressure

          total   stress  (Ry/bohr**3)                   (kbar)     P=       -4.48
  -0.00001900  -0.00000000   0.00000000           -2.79       -0.00        0.00
  -0.00000000  -0.00002904   0.00000000           -0.00       -4.27        0.00
   0.00000000   0.00000000  -0.00004325            0.00        0.00       -6.36

 
     init_run     :     18.75s CPU     19.24s WALL (       1 calls)
     electrons    :    977.65s CPU    988.78s WALL (       1 calls)
     forces       :      6.91s CPU      7.16s WALL (       1 calls)
     stress       :     42.72s CPU     43.33s WALL (       1 calls)

     Called by init_run:
     wfcinit      :     14.23s CPU     14.42s WALL (       1 calls)
     potinit      :      1.44s CPU      1.50s WALL (       1 calls)
     hinit0       :      1.77s CPU      1.82s WALL (       1 calls)

     Called by electrons:
     c_bands      :    827.81s CPU    831.46s WALL (      18 calls)
     sum_band     :    125.19s CPU    129.36s WALL (      18 calls)
     v_of_rho     :      5.42s CPU      5.71s WALL (      18 calls)
     newd         :     13.70s CPU     16.90s WALL (      18 calls)
     PAW_pot      :      5.65s CPU      5.66s WALL (      18 calls)
     mix_rho      :      0.81s CPU      0.83s WALL (      18 calls)

     Called by c_bands:
     init_us_2    :     11.01s CPU     11.09s WALL (    2457 calls)
     cegterg      :    753.60s CPU    756.77s WALL (    1134 calls)

     Called by *egterg:
     cdiaghg      :     28.99s CPU     29.05s WALL (    8593 calls)
     h_psi        :    574.39s CPU    577.35s WALL (    8719 calls)
     s_psi        :     46.91s CPU     47.01s WALL (    8719 calls)
     g_psi        :      2.13s CPU      2.14s WALL (    7522 calls)

     Called by h_psi:
     h_psi:calbec :     40.75s CPU     40.83s WALL (    8719 calls)
     vloc_psi     :    483.71s CPU    486.42s WALL (    8719 calls)
     add_vuspsi   :     46.74s CPU     46.84s WALL (    8719 calls)

     General routines
     calbec       :     53.05s CPU     53.18s WALL (   10168 calls)
     fft          :      3.23s CPU      3.34s WALL (     258 calls)
     ffts         :      0.08s CPU      0.08s WALL (      36 calls)
     fftw         :    435.13s CPU    437.56s WALL (  443266 calls)
     interpolate  :      0.29s CPU      0.29s WALL (      18 calls)
 
     Parallel routines
 
     PWSCF        :  17m26.27s CPU  17m38.85s WALL

 
   This run was terminated on:  15:36:30  19Nov2021            

=------------------------------------------------------------------------------=
   JOB DONE.
=------------------------------------------------------------------------------=
