
     Program PWSCF v.6.8 starts on 19Nov2021 at 15:17:25 

     This program is part of the open-source Quantum ESPRESSO suite
     for quantum simulation of materials; please cite
         "P. Giannozzi et al., J. Phys.:Condens. Matter 21 395502 (2009);
         "P. Giannozzi et al., J. Phys.:Condens. Matter 29 465901 (2017);
         "P. Giannozzi et al., J. Chem. Phys. 152 154105 (2020);
          URL http://www.quantum-espresso.org", 
     in publications or presentations arising from this work. More details at
     http://www.quantum-espresso.org/quote

     Parallel version (MPI), running on    10 processors

     MPI processes distributed on     1 nodes
     R & G space division:  proc/nbgrp/npool/nimage =      10
     71306 MiB available memory on the printing compute node when the environment starts
 
     Waiting for input...
     Reading input from standard input

     Current dimensions of program PWSCF are:
     Max number of different atomic species (ntypx) = 10
     Max number of k-points (npk) =  40000
     Max angular momentum in pseudopotentials (lmaxx) =  4
     file Zr.pbe-spn-kjpaw_psl.1.0.0.UPF: wavefunction(s)  4S 4P renormalized
     file Te.pbe-n-kjpaw_psl.1.0.0.UPF: wavefunction(s)  5S 5P renormalized
     Message from routine setup:
     using ibrav=0 with symmetry is DISCOURAGED, use correct ibrav instead

     Subspace diagonalization in iterative solution of the eigenvalue problem:
     a serial algorithm will be used

 
     Parallelization info
     --------------------
     sticks:   dense  smooth     PW     G-vecs:    dense   smooth      PW
     Min         734     293     87               115340    29174    4753
     Max         735     295     88               115345    29176    4760
     Sum        7345    2937    873              1153415   291749   47557
 
     Using Slab Decomposition
 


     bravais-lattice index     =            0
     lattice parameter (alat)  =      15.5510  a.u.
     unit-cell volume          =    3018.5011 (a.u.)^3
     number of atoms/cell      =           12
     number of atomic types    =            2
     number of electrons       =        84.00
     number of Kohn-Sham states=           50
     kinetic-energy cutoff     =      80.0000  Ry
     charge density cutoff     =     800.0000  Ry
     scf convergence threshold =      1.0E-10
     mixing beta               =       0.7000
     number of iterations used =            8  plain     mixing
     Exchange-correlation= SLA  PW   PBX  PBC
                           (   1   4   3   4   0   0   0)

     celldm(1)=  15.551040  celldm(2)=   0.000000  celldm(3)=   0.000000
     celldm(4)=   0.000000  celldm(5)=   0.000000  celldm(6)=   0.000000

     crystal axes: (cart. coord. in units of alat)
               a(1) = (   0.246007  -0.969268   0.000000 )  
               a(2) = (   0.246007   0.969268   0.000000 )  
               a(3) = (   0.000000   0.000000   1.683031 )  

     reciprocal axes: (cart. coord. in units 2 pi/alat)
               b(1) = (  2.032465 -0.515853  0.000000 )  
               b(2) = (  2.032465  0.515853  0.000000 )  
               b(3) = (  0.000000  0.000000  0.594166 )  


     PseudoPot. # 1 for Zr read from file:
     pseudo/Zr.pbe-spn-kjpaw_psl.1.0.0.UPF
     MD5 check sum: 02112c41713a0468aff2bb39ef194e36
     Pseudo is Projector augmented-wave + core cor, Zval = 12.0
     Generated using &quot;atomic&quot; code by A. Dal Corso  v.6.2.2
     Shape of augmentation charge: PSQ
     Using radial grid of 1225 points,  6 beta functions with: 
                l(1) =   0
                l(2) =   0
                l(3) =   1
                l(4) =   1
                l(5) =   2
                l(6) =   2
     Q(r) pseudized with 0 coefficients 


     PseudoPot. # 2 for Te read from file:
     pseudo/Te.pbe-n-kjpaw_psl.1.0.0.UPF
     MD5 check sum: 66247bff2bd9dbf220fbb0bf5ab56e9d
     Pseudo is Projector augmented-wave + core cor, Zval =  6.0
     Generated using &quot;atomic&quot; code by A. Dal Corso  v.6.3
     Shape of augmentation charge: PSQ
     Using radial grid of 1245 points,  6 beta functions with: 
                l(1) =   0
                l(2) =   0
                l(3) =   1
                l(4) =   1
                l(5) =   2
                l(6) =   2
     Q(r) pseudized with 0 coefficients 


     atomic species   valence    mass     pseudopotential
        Zr            12.00    91.22000     Zr( 1.00)
        Te             6.00   127.60000     Te( 1.00)

      8 Sym. Ops., with inversion, found ( 4 have fractional translation)



   Cartesian axes

     site n.     atom                  positions (alat units)
         1           Zr  tau(   1) = (   0.0000000   0.6078052   0.4207578  )
         2           Zr  tau(   2) = (   0.2460067   0.3614629   1.2622733  )
         3           Te  tau(   3) = (   0.2460067   0.3342926   0.4207578  )
         4           Te  tau(   4) = (   0.0000000   0.6349756   1.2622733  )
         5           Te  tau(   5) = (   0.2460067   0.8088253   0.2513805  )
         6           Te  tau(   6) = (   0.0000000   0.1604428   1.4316506  )
         7           Te  tau(   7) = (   0.2460067   0.8088253   0.5901351  )
         8           Te  tau(   8) = (   0.0000000   0.1604428   1.0928960  )
         9           Te  tau(   9) = (   0.0000000   0.4110418   0.7272091  )
        10           Te  tau(  10) = (   0.2460067   0.5582264   0.9558219  )
        11           Te  tau(  11) = (   0.0000000   0.4110418   0.1143064  )
        12           Te  tau(  12) = (   0.2460067   0.5582264   1.5687247  )

     number of k points=    63  Methfessel-Paxton smearing, width (Ry)=  0.0030
                       cart. coord. in units 2pi/alat
        k(    1) = (   0.0000000   0.0000000   0.0000000), wk =   0.0078125
        k(    2) = (   0.0000000   0.0000000   0.1485415), wk =   0.0156250
        k(    3) = (   0.0000000   0.0000000  -0.2970830), wk =   0.0078125
        k(    4) = (   0.2540581   0.0644816   0.0000000), wk =   0.0312500
        k(    5) = (   0.2540581   0.0644816   0.1485415), wk =   0.0625000
        k(    6) = (   0.2540581   0.0644816  -0.2970830), wk =   0.0312500
        k(    7) = (   0.5081162   0.1289633   0.0000000), wk =   0.0312500
        k(    8) = (   0.5081162   0.1289633   0.1485415), wk =   0.0625000
        k(    9) = (   0.5081162   0.1289633  -0.2970830), wk =   0.0312500
        k(   10) = (   0.7621743   0.1934449   0.0000000), wk =   0.0312500
        k(   11) = (   0.7621743   0.1934449   0.1485415), wk =   0.0625000
        k(   12) = (   0.7621743   0.1934449  -0.2970830), wk =   0.0312500
        k(   13) = (  -1.0162324  -0.2579266   0.0000000), wk =   0.0156250
        k(   14) = (  -1.0162324  -0.2579266   0.1485415), wk =   0.0312500
        k(   15) = (  -1.0162324  -0.2579266  -0.2970830), wk =   0.0156250
        k(   16) = (   0.5081162   0.0000000   0.0000000), wk =   0.0156250
        k(   17) = (   0.5081162   0.0000000   0.1485415), wk =   0.0312500
        k(   18) = (   0.5081162   0.0000000  -0.2970830), wk =   0.0156250
        k(   19) = (   0.7621743   0.0644816   0.0000000), wk =   0.0312500
        k(   20) = (   0.7621743   0.0644816   0.1485415), wk =   0.0625000
        k(   21) = (   0.7621743   0.0644816  -0.2970830), wk =   0.0312500
        k(   22) = (   1.0162324   0.1289633   0.0000000), wk =   0.0312500
        k(   23) = (   1.0162324   0.1289633   0.1485415), wk =   0.0625000
        k(   24) = (   1.0162324   0.1289633  -0.2970830), wk =   0.0312500
        k(   25) = (  -0.7621743  -0.3224082   0.0000000), wk =   0.0312500
        k(   26) = (  -0.7621743  -0.3224082   0.1485415), wk =   0.0625000
        k(   27) = (  -0.7621743  -0.3224082  -0.2970830), wk =   0.0312500
        k(   28) = (  -0.5081162  -0.2579266   0.0000000), wk =   0.0312500
        k(   29) = (  -0.5081162  -0.2579266   0.1485415), wk =   0.0625000
        k(   30) = (  -0.5081162  -0.2579266  -0.2970830), wk =   0.0312500
        k(   31) = (  -0.2540581  -0.1934449   0.0000000), wk =   0.0312500
        k(   32) = (  -0.2540581  -0.1934449   0.1485415), wk =   0.0625000
        k(   33) = (  -0.2540581  -0.1934449  -0.2970830), wk =   0.0312500
        k(   34) = (   0.0000000  -0.1289633   0.0000000), wk =   0.0156250
        k(   35) = (   0.0000000  -0.1289633   0.1485415), wk =   0.0312500
        k(   36) = (   0.0000000  -0.1289633  -0.2970830), wk =   0.0156250
        k(   37) = (   1.0162324   0.0000000   0.0000000), wk =   0.0156250
        k(   38) = (   1.0162324   0.0000000   0.1485415), wk =   0.0312500
        k(   39) = (   1.0162324   0.0000000  -0.2970830), wk =   0.0156250
        k(   40) = (   1.2702905   0.0644816   0.0000000), wk =   0.0312500
        k(   41) = (   1.2702905   0.0644816   0.1485415), wk =   0.0625000
        k(   42) = (   1.2702905   0.0644816  -0.2970830), wk =   0.0312500
        k(   43) = (  -0.5081162  -0.3868899   0.0000000), wk =   0.0312500
        k(   44) = (  -0.5081162  -0.3868899   0.1485415), wk =   0.0625000
        k(   45) = (  -0.5081162  -0.3868899  -0.2970830), wk =   0.0312500
        k(   46) = (  -0.2540581  -0.3224082   0.0000000), wk =   0.0312500
        k(   47) = (  -0.2540581  -0.3224082   0.1485415), wk =   0.0625000
        k(   48) = (  -0.2540581  -0.3224082  -0.2970830), wk =   0.0312500
        k(   49) = (   0.0000000  -0.2579266   0.0000000), wk =   0.0156250
        k(   50) = (   0.0000000  -0.2579266   0.1485415), wk =   0.0312500
        k(   51) = (   0.0000000  -0.2579266  -0.2970830), wk =   0.0156250
        k(   52) = (   1.5243485   0.0000000   0.0000000), wk =   0.0156250
        k(   53) = (   1.5243485   0.0000000   0.1485415), wk =   0.0312500
        k(   54) = (   1.5243485   0.0000000  -0.2970830), wk =   0.0156250
        k(   55) = (  -0.2540581  -0.4513715   0.0000000), wk =   0.0312500
        k(   56) = (  -0.2540581  -0.4513715   0.1485415), wk =   0.0625000
        k(   57) = (  -0.2540581  -0.4513715  -0.2970830), wk =   0.0312500
        k(   58) = (   0.0000000  -0.3868899   0.0000000), wk =   0.0156250
        k(   59) = (   0.0000000  -0.3868899   0.1485415), wk =   0.0312500
        k(   60) = (   0.0000000  -0.3868899  -0.2970830), wk =   0.0156250
        k(   61) = (  -2.0324647   0.0000000   0.0000000), wk =   0.0078125
        k(   62) = (  -2.0324647   0.0000000   0.1485415), wk =   0.0156250
        k(   63) = (  -2.0324647   0.0000000  -0.2970830), wk =   0.0078125

     Dense  grid:  1153415 G-vectors     FFT dimensions: ( 144, 144, 240)

     Smooth grid:   291749 G-vectors     FFT dimensions: (  90,  90, 150)

     Estimated max dynamical RAM per process >     657.19 MB

     Estimated total dynamical RAM >       6.42 GB

     Initial potential from superposition of free atoms

     starting charge   83.99353, renormalised to   84.00000
     Starting wfcs are   66 randomized atomic wfcs
     Checking if some PAW data can be deallocated... 

     total cpu time spent up to now is       18.6 secs

     Self-consistent Calculation

     iteration #  1     ecut=    80.00 Ry     beta= 0.70
     Davidson diagonalization with overlap
     ethr =  1.00E-02,  avg # of iterations =  2.0

     Threshold (ethr) on eigenvalues was too large:
     Diagonalizing with lowered threshold

     Davidson diagonalization with overlap
     ethr =  4.00E-04,  avg # of iterations =  4.0

     total cpu time spent up to now is       99.4 secs

     total energy              =   -4240.72987713 Ry
     estimated scf accuracy    <       0.43073234 Ry

     iteration #  2     ecut=    80.00 Ry     beta= 0.70
     Davidson diagonalization with overlap
     ethr =  5.13E-04,  avg # of iterations =  7.6

     total cpu time spent up to now is      158.6 secs

     total energy              =   -4240.63546540 Ry
     estimated scf accuracy    <       2.10281939 Ry

     iteration #  3     ecut=    80.00 Ry     beta= 0.70
     Davidson diagonalization with overlap
     ethr =  5.13E-04,  avg # of iterations =  5.4
     Minimization algorithm failed to find Fermi energy: reverting to bisection
     Possible cause: smearing is larger than the electronic band-gap.

     total cpu time spent up to now is      208.7 secs

     total energy              =   -4240.93378513 Ry
     estimated scf accuracy    <       0.01240410 Ry

     iteration #  4     ecut=    80.00 Ry     beta= 0.70
     Davidson diagonalization with overlap
     c_bands:  1 eigenvalues not converged
     c_bands:  2 eigenvalues not converged
     c_bands:  1 eigenvalues not converged
     c_bands:  2 eigenvalues not converged
     c_bands:  2 eigenvalues not converged
     c_bands:  2 eigenvalues not converged
     c_bands:  1 eigenvalues not converged
     c_bands:  1 eigenvalues not converged
     c_bands:  1 eigenvalues not converged
     c_bands:  1 eigenvalues not converged
     c_bands:  2 eigenvalues not converged
     c_bands:  1 eigenvalues not converged
     c_bands:  1 eigenvalues not converged
     c_bands:  1 eigenvalues not converged
     ethr =  1.48E-05,  avg # of iterations = 17.2

     total cpu time spent up to now is      301.8 secs

     WARNING: integrated charge=    83.99810446, expected=    84.00000000

     total energy              =   -4240.95021385 Ry
     estimated scf accuracy    <       0.07246578 Ry

     iteration #  5     ecut=    80.00 Ry     beta= 0.70
     Davidson diagonalization with overlap
     ethr =  1.48E-05,  avg # of iterations =  6.8

     total cpu time spent up to now is      350.1 secs

     WARNING: integrated charge=    83.99945757, expected=    84.00000000

     total energy              =   -4240.94919050 Ry
     estimated scf accuracy    <       0.01406374 Ry

     iteration #  6     ecut=    80.00 Ry     beta= 0.70
     Davidson diagonalization with overlap
     ethr =  1.48E-05,  avg # of iterations =  3.2

     total cpu time spent up to now is      389.5 secs

     WARNING: integrated charge=    84.00012035, expected=    84.00000000

     total energy              =   -4240.95045325 Ry
     estimated scf accuracy    <       0.00131279 Ry

     iteration #  7     ecut=    80.00 Ry     beta= 0.70
     Davidson diagonalization with overlap
     c_bands:  1 eigenvalues not converged
     c_bands:  1 eigenvalues not converged
     c_bands:  2 eigenvalues not converged
     c_bands:  1 eigenvalues not converged
     c_bands:  1 eigenvalues not converged
     ethr =  1.56E-06,  avg # of iterations = 14.1

     total cpu time spent up to now is      462.2 secs

     WARNING: integrated charge=    83.99972661, expected=    84.00000000

     total energy              =   -4240.95125185 Ry
     estimated scf accuracy    <       0.00205774 Ry

     iteration #  8     ecut=    80.00 Ry     beta= 0.70
     Davidson diagonalization with overlap
     c_bands:  1 eigenvalues not converged
     ethr =  1.56E-06,  avg # of iterations =  2.8

     total cpu time spent up to now is      499.1 secs

     WARNING: integrated charge=    83.99972209, expected=    84.00000000

     total energy              =   -4240.95128405 Ry
     estimated scf accuracy    <       0.00035240 Ry

     iteration #  9     ecut=    80.00 Ry     beta= 0.70
     Davidson diagonalization with overlap
     ethr =  4.20E-07,  avg # of iterations =  6.2

     total cpu time spent up to now is      545.6 secs

     WARNING: integrated charge=    83.99988083, expected=    84.00000000

     total energy              =   -4240.95137962 Ry
     estimated scf accuracy    <       0.00001271 Ry

     iteration # 10     ecut=    80.00 Ry     beta= 0.70
     Davidson diagonalization with overlap
     ethr =  1.51E-08,  avg # of iterations =  7.4

     total cpu time spent up to now is      599.9 secs

     WARNING: integrated charge=    83.99998578, expected=    84.00000000

     total energy              =   -4240.95138699 Ry
     estimated scf accuracy    <       0.00001284 Ry

     iteration # 11     ecut=    80.00 Ry     beta= 0.70
     Davidson diagonalization with overlap
     ethr =  1.51E-08,  avg # of iterations =  3.6

     total cpu time spent up to now is      639.2 secs

     total energy              =   -4240.95138924 Ry
     estimated scf accuracy    <       0.00000006 Ry

     iteration # 12     ecut=    80.00 Ry     beta= 0.70
     Davidson diagonalization with overlap
     c_bands:  1 eigenvalues not converged
     ethr =  6.68E-11,  avg # of iterations = 11.7

     total cpu time spent up to now is      721.7 secs

     total energy              =   -4240.95138949 Ry
     estimated scf accuracy    <       0.00000026 Ry

     iteration # 13     ecut=    80.00 Ry     beta= 0.70
     Davidson diagonalization with overlap
     ethr =  6.68E-11,  avg # of iterations =  4.8

     total cpu time spent up to now is      769.6 secs

     total energy              =   -4240.95138953 Ry
     estimated scf accuracy    <          9.5E-10 Ry

     iteration # 14     ecut=    80.00 Ry     beta= 0.70
     Davidson diagonalization with overlap
     ethr =  1.13E-12,  avg # of iterations = 11.0

     total cpu time spent up to now is      849.7 secs

     total energy              =   -4240.95138953 Ry
     estimated scf accuracy    <       0.00000001 Ry

     iteration # 15     ecut=    80.00 Ry     beta= 0.70
     Davidson diagonalization with overlap
     ethr =  1.13E-12,  avg # of iterations =  6.6

     total cpu time spent up to now is      903.7 secs

     total energy              =   -4240.95138953 Ry
     estimated scf accuracy    <          4.0E-10 Ry

     iteration # 16     ecut=    80.00 Ry     beta= 0.70
     Davidson diagonalization with overlap
     ethr =  4.80E-13,  avg # of iterations =  5.7

     total cpu time spent up to now is      952.2 secs

     End of self-consistent calculation

          k = 0.0000 0.0000 0.0000 ( 36359 PWs)   bands (ev):

   -44.1390 -44.1390 -22.2714 -22.2714 -22.1747 -22.1747 -22.0653 -22.0652
    -7.7585  -7.2909  -7.1388  -6.8241  -6.4024  -5.3877  -5.0079  -4.8643
    -4.8118  -3.8499   0.3847   0.7384   0.7516   1.0974   1.5116   1.5177
     2.3622   2.3882   2.6981   2.7826   2.9759   3.0137   3.1920   3.4595
     3.6405   3.7264   3.9207   4.0583   4.1954   4.3259   4.3311   4.6517
     4.9453   5.5284   5.6200   5.7459   5.8378   5.9796   6.2570   6.8322
     6.9602   7.2750

          k = 0.0000 0.0000 0.1485 ( 36415 PWs)   bands (ev):

   -44.1390 -44.1390 -22.2714 -22.2714 -22.1747 -22.1747 -22.0653 -22.0652
    -7.7209  -7.4420  -7.0047  -6.8387  -6.3155  -5.6854  -4.8718  -4.8215
    -4.6795  -3.9668   0.4422   0.7752   0.9048   1.0309   1.0626   1.9530
     2.0838   2.3910   2.5951   2.8618   2.9652   3.1215   3.3745   3.3872
     3.6813   3.7996   3.9071   4.0561   4.1391   4.3451   4.3475   4.6587
     4.8249   5.0238   5.7740   5.9727   5.9802   5.9928   6.5952   6.6243
     6.7864   7.2272

          k = 0.0000 0.0000-0.2971 ( 36410 PWs)   bands (ev):

   -44.1390 -44.1390 -22.2714 -22.2714 -22.1747 -22.1747 -22.0653 -22.0653
    -7.6112  -7.6112  -6.8903  -6.8903  -6.0571  -6.0571  -4.8450  -4.8450
    -4.2750  -4.2750   0.6470   0.6470   0.8990   0.8990   1.3859   1.3859
     2.4735   2.4735   2.6662   2.6662   2.9302   2.9302   3.4493   3.4493
     3.8692   3.8692   3.9760   3.9760   4.3400   4.3400   4.3992   4.3992
     4.6999   4.6999   5.9527   5.9527   6.2224   6.2224   6.3963   6.3963
     7.0661   7.0661

          k = 0.2541 0.0645 0.0000 ( 36396 PWs)   bands (ev):

   -44.1386 -44.1386 -22.2694 -22.2694 -22.1845 -22.1845 -22.0641 -22.0640
    -7.6428  -7.1822  -7.0643  -6.7771  -6.3406  -5.3457  -5.0126  -4.8222
    -4.7688  -3.9955   0.4714   0.8697   0.8826   1.2156   1.3628   1.3681
     1.8872   1.9136   2.1393   2.5515   2.5831   3.1035   3.3715   3.7035
     3.7255   3.7636   3.7718   3.7985   4.0123   4.2436   4.2499   4.2611
     4.4803   4.6219   5.7676   5.9804   6.2433   6.5624   6.6142   6.8078
     7.0060   7.1574

          k = 0.2541 0.0645 0.1485 ( 36423 PWs)   bands (ev):

   -44.1386 -44.1386 -22.2694 -22.2694 -22.1845 -22.1845 -22.0641 -22.0640
    -7.6060  -7.3340  -6.9361  -6.7901  -6.2498  -5.6310  -4.8490  -4.7805
    -4.6894  -4.0891   0.5165   0.9082   0.9601   0.9753   1.1667   1.5144
     1.8152   2.2371   2.3328   2.5344   2.5623   2.9389   3.3044   3.3252
     3.5976   3.7328   3.9050   3.9165   4.0171   4.1266   4.2822   4.3156
     4.6830   4.9286   5.8247   5.8854   6.1902   6.2683   6.4455   6.7128
     7.2377   7.3077

          k = 0.2541 0.0645-0.2971 ( 36436 PWs)   bands (ev):

   -44.1386 -44.1386 -22.2694 -22.2694 -22.1845 -22.1845 -22.0641 -22.0641
    -7.4989  -7.4989  -6.8355  -6.8355  -5.9909  -5.9909  -4.8093  -4.8093
    -4.3445  -4.3445   0.6785   0.6785   1.0076   1.0076   1.2175   1.2175
     2.2501   2.2501   2.4843   2.4843   2.6760   2.6760   3.1505   3.1505
     3.6150   3.6150   3.9092   3.9092   4.0794   4.0794   4.3180   4.3180
     5.0894   5.0894   5.7644   5.7644   6.1218   6.1218   6.4485   6.4485
     7.4261   7.4261

          k = 0.5081 0.1290 0.0000 ( 36499 PWs)   bands (ev):

   -44.1377 -44.1377 -22.2647 -22.2647 -22.2082 -22.2082 -22.0612 -22.0612
    -7.3145  -6.8886  -6.8675  -6.6500  -6.1466  -5.2567  -5.0847  -4.7121
    -4.6627  -4.4327   0.5438   0.5752   0.6739   1.2177   1.2368   1.4925
     1.6823   1.7234   2.0383   2.0835   2.1666   2.2516   2.3720   3.3365
     3.4167   3.4843   3.4971   3.5900   3.7699   3.8977   3.9008   4.1660
     4.4896   5.1591   5.4980   6.0029   6.0143   6.5715   6.5863   6.9074
     7.4290   7.5657

          k = 0.5081 0.1290 0.1485 ( 36476 PWs)   bands (ev):

   -44.1377 -44.1377 -22.2647 -22.2647 -22.2082 -22.2082 -22.0612 -22.0612
    -7.2811  -7.0390  -6.7555  -6.6595  -6.0513  -5.4999  -4.9038  -4.6913
    -4.6687  -4.4635   0.4867   0.6837   0.7859   1.0418   1.2499   1.4094
     1.4743   1.5838   2.0252   2.0903   2.3308   2.4888   2.7988   3.3595
     3.4127   3.4295   3.5102   3.5812   3.6827   3.7489   3.8467   4.2235
     4.3430   4.5353   6.0952   6.1478   6.2698   6.5745   6.6284   6.7743
     7.2671   7.4983

          k = 0.5081 0.1290-0.2971 ( 36466 PWs)   bands (ev):

   -44.1377 -44.1377 -22.2647 -22.2647 -22.2082 -22.2082 -22.0612 -22.0612
    -7.1845  -7.1845  -6.6903  -6.6903  -5.8082  -5.8082  -4.7656  -4.7656
    -4.5568  -4.5568   0.5733   0.5733   1.0577   1.0577   1.1585   1.1585
     1.3973   1.3973   2.0581   2.0581   2.7311   2.7311   3.1438   3.1438
     3.3860   3.3860   3.5513   3.5513   3.7024   3.7024   3.8240   3.8240
     4.3062   4.3062   6.3357   6.3357   6.5500   6.5500   6.8080   6.8080
     7.1156   7.1156

          k = 0.7622 0.1934 0.0000 ( 36521 PWs)   bands (ev):

   -44.1368 -44.1368 -22.2599 -22.2599 -22.2318 -22.2318 -22.0583 -22.0583
    -6.8873  -6.7301  -6.4204  -6.3871  -5.8324  -5.3488  -5.2387  -5.0873
    -4.5889  -4.5532   0.0130   0.1321   0.5834   1.0603   1.0868   1.2558
     1.4788   1.6006   1.9437   2.0250   2.2594   2.4086   2.4148   2.7758
     2.8454   3.2632   3.3252   3.4142   3.6248   3.6931   3.7179   3.7872
     3.8933   4.5630   5.8381   6.2624   6.3288   6.7926   6.7987   6.8990
     7.2667   7.5989

          k = 0.7622 0.1934 0.1485 ( 36503 PWs)   bands (ev):

   -44.1368 -44.1368 -22.2599 -22.2599 -22.2318 -22.2318 -22.0583 -22.0583
    -6.8665  -6.7548  -6.4218  -6.4026  -5.7585  -5.4330  -5.2000  -5.1042
    -4.5795  -4.5551   0.0542   0.2680   0.4542   0.9354   1.0625   1.2195
     1.4931   1.6391   1.8322   2.0699   2.1348   2.6309   2.6922   2.8182
     2.8779   3.1091   3.2717   3.3901   3.5195   3.6195   3.6544   3.9240
     3.9771   4.5935   5.5660   6.3081   6.6118   6.6871   6.8503   6.9496
     7.0430   7.5389

          k = 0.7622 0.1934-0.2971 ( 36522 PWs)   bands (ev):

   -44.1368 -44.1368 -22.2599 -22.2599 -22.2318 -22.2318 -22.0583 -22.0583
    -6.8129  -6.8129  -6.4193  -6.4193  -5.5961  -5.5961  -5.1469  -5.1469
    -4.5637  -4.5637   0.2130   0.2130   0.6067   0.6067   1.0791   1.0791
     1.5705   1.5705   2.0073   2.0073   2.3688   2.3688   2.8074   2.8074
     2.9939   2.9939   3.3491   3.3491   3.5880   3.5880   3.8471   3.8471
     4.1251   4.1251   6.0762   6.0762   6.4176   6.4176   6.9294   6.9294
     7.3804   7.3804

          k =-1.0162-0.2579 0.0000 ( 36506 PWs)   bands (ev):

   -44.1364 -44.1364 -22.2577 -22.2577 -22.2417 -22.2417 -22.0571 -22.0571
    -6.7024  -6.6823  -5.9028  -5.8917  -5.8343  -5.8253  -5.4032  -5.4025
    -4.5318  -4.5086   0.0244   0.0484   0.3571   0.3780   1.0119   1.0211
     1.4674   1.6715   2.2345   2.3813   2.3878   2.3920   2.7908   2.8083
     2.8152   2.8711   3.2327   3.2624   3.3123   3.4424   3.5405   3.7128
     3.7544   4.0241   6.4750   6.4999   6.5268   6.6076   6.9892   7.0779
     7.0869   7.0975

          k =-1.0162-0.2579 0.1485 ( 36506 PWs)   bands (ev):

   -44.1364 -44.1364 -22.2577 -22.2577 -22.2417 -22.2417 -22.0571 -22.0571
    -6.6987  -6.6844  -5.9205  -5.9121  -5.8160  -5.8103  -5.3980  -5.3978
    -4.5325  -4.5161  -0.0711  -0.0635   0.5813   0.5879   1.0152   1.0359
     1.4644   1.5917   1.9585   2.0489   2.3767   2.3939   2.7211   2.7214
     2.9435   3.0094   3.1285   3.1988   3.5535   3.5708   3.6858   3.7498
     4.0438   4.1200   5.9507   5.9642   6.4497   6.5246   7.0343   7.0646
     7.2877   7.3263

          k =-1.0162-0.2579-0.2971 ( 36528 PWs)   bands (ev):

   -44.1364 -44.1364 -22.2577 -22.2577 -22.2417 -22.2417 -22.0571 -22.0571
    -6.6908  -6.6908  -5.9305  -5.9305  -5.8014  -5.8014  -5.3929  -5.3929
    -4.5284  -4.5284  -0.1301  -0.1301   0.8770   0.8770   0.9401   0.9401
     1.5430   1.5430   1.6803   1.6803   2.3765   2.3765   2.7738   2.7738
     2.9220   2.9220   3.1670   3.1670   3.6237   3.6237   3.7954   3.7954
     4.4421   4.4421   5.4605   5.4605   6.4075   6.4075   7.0729   7.0729
     7.3772   7.3772

          k = 0.5081 0.0000 0.0000 ( 36503 PWs)   bands (ev):

   -44.1377 -44.1377 -22.2647 -22.2647 -22.2082 -22.2082 -22.0612 -22.0612
    -7.3194  -6.8900  -6.8684  -6.6446  -6.1427  -5.2572  -5.0816  -4.7070
    -4.6689  -4.4322   0.5499   0.5775   0.6665   1.1914   1.2318   1.4703
     1.6842   1.7266   2.0244   2.1180   2.1210   2.2476   2.3691   3.3228
     3.4412   3.4508   3.5563   3.5966   3.7760   3.8832   3.9506   4.2032
     4.4917   5.1569   5.5037   5.9833   6.0483   6.5321   6.5351   6.9429
     7.4491   7.5773

          k = 0.5081 0.0000 0.1485 ( 36453 PWs)   bands (ev):

   -44.1377 -44.1377 -22.2647 -22.2647 -22.2082 -22.2082 -22.0612 -22.0612
    -7.2858  -7.0425  -6.7529  -6.6541  -6.0489  -5.5001  -4.8987  -4.6932
    -4.6686  -4.4644   0.4873   0.6789   0.7883   1.0438   1.2299   1.4214
     1.4356   1.5707   2.0214   2.0978   2.3438   2.4526   2.7933   3.3487
     3.4217   3.4607   3.4998   3.5887   3.6777   3.8166   3.8387   4.2610
     4.3566   4.5314   6.0913   6.1594   6.2845   6.5250   6.5921   6.8058
     7.2899   7.5053

          k = 0.5081 0.0000-0.2971 ( 36452 PWs)   bands (ev):

   -44.1377 -44.1377 -22.2647 -22.2647 -22.2082 -22.2082 -22.0612 -22.0612
    -7.1889  -7.1889  -6.6855  -6.6855  -5.8078  -5.8078  -4.7615  -4.7615
    -4.5597  -4.5597   0.5698   0.5698   1.0578   1.0578   1.1733   1.1733
     1.3562   1.3562   2.0594   2.0594   2.7222   2.7222   3.1288   3.1288
     3.3839   3.3839   3.5801   3.5801   3.7258   3.7258   3.8254   3.8254
     4.3282   4.3282   6.3515   6.3515   6.5142   6.5142   6.8246   6.8246
     7.1171   7.1171

          k = 0.7622 0.0645 0.0000 ( 36505 PWs)   bands (ev):

   -44.1368 -44.1368 -22.2599 -22.2599 -22.2318 -22.2318 -22.0583 -22.0583
    -6.8963  -6.7280  -6.4118  -6.3889  -5.8320  -5.3451  -5.2394  -5.0868
    -4.5805  -4.5627   0.0083   0.1429   0.6025   1.0746   1.0921   1.2701
     1.4396   1.5606   1.9178   2.0417   2.2537   2.3576   2.3964   2.7494
     2.8328   3.3151   3.3494   3.4358   3.6217   3.6403   3.7417   3.8267
     3.9110   4.6007   5.8360   6.2693   6.3054   6.7632   6.8562   6.8568
     7.2854   7.6090

          k = 0.7622 0.0645 0.1485 ( 36509 PWs)   bands (ev):

   -44.1368 -44.1368 -22.2599 -22.2599 -22.2318 -22.2318 -22.0583 -22.0583
    -6.8747  -6.7557  -6.4133  -6.4009  -5.7590  -5.4324  -5.1982  -5.1033
    -4.5737  -4.5618   0.0558   0.2714   0.4636   0.9449   1.0705   1.2351
     1.4585   1.6392   1.8586   1.9979   2.0647   2.6510   2.6742   2.7995
     2.8620   3.1112   3.3314   3.4017   3.5036   3.6262   3.6676   3.9442
     4.0131   4.5915   5.5919   6.2887   6.6205   6.6844   6.8661   6.9463
     7.0189   7.5579

          k = 0.7622 0.0645-0.2971 ( 36472 PWs)   bands (ev):

   -44.1368 -44.1368 -22.2599 -22.2599 -22.2318 -22.2318 -22.0583 -22.0583
    -6.8185  -6.8185  -6.4127  -6.4127  -5.5971  -5.5971  -5.1451  -5.1451
    -4.5640  -4.5640   0.2191   0.2191   0.6009   0.6009   1.1030   1.1030
     1.5640   1.5640   1.9585   1.9585   2.3392   2.3392   2.8067   2.8067
     2.9834   2.9834   3.4112   3.4112   3.5849   3.5849   3.8345   3.8345
     4.1471   4.1471   6.1012   6.1012   6.4186   6.4186   6.8962   6.8962
     7.4075   7.4075

          k = 1.0162 0.1290 0.0000 ( 36514 PWs)   bands (ev):

   -44.1364 -44.1364 -22.2577 -22.2577 -22.2417 -22.2417 -22.0571 -22.0571
    -6.7024  -6.6823  -5.9025  -5.8920  -5.8343  -5.8253  -5.4032  -5.4025
    -4.5318  -4.5086   0.0185   0.0544   0.3524   0.3829   1.0060   1.0282
     1.4730   1.6626   2.2353   2.3769   2.3781   2.3960   2.7881   2.8060
     2.8307   2.8811   3.2442   3.2485   3.3057   3.4327   3.5705   3.6990
     3.7354   4.0368   6.4664   6.5092   6.5219   6.6136   7.0049   7.0796
     7.0876   7.0890

          k = 1.0162 0.1290 0.1485 ( 36524 PWs)   bands (ev):

   -44.1364 -44.1364 -22.2577 -22.2577 -22.2417 -22.2417 -22.0571 -22.0571
    -6.6987  -6.6844  -5.9203  -5.9123  -5.8160  -5.8103  -5.3982  -5.3976
    -4.5325  -4.5161  -0.0732  -0.0617   0.5822   0.5876   1.0184   1.0333
     1.4693   1.5872   1.9698   2.0335   2.3736   2.3890   2.6767   2.7731
     2.9591   3.0220   3.1120   3.1937   3.5321   3.6077   3.6791   3.7358
     4.0269   4.1395   5.9418   5.9760   6.4467   6.5272   7.0406   7.0633
     7.2934   7.3210

          k = 1.0162 0.1290-0.2971 ( 36516 PWs)   bands (ev):

   -44.1364 -44.1364 -22.2577 -22.2577 -22.2417 -22.2417 -22.0571 -22.0571
    -6.6908  -6.6908  -5.9305  -5.9305  -5.8014  -5.8014  -5.3929  -5.3929
    -4.5284  -4.5284  -0.1302  -0.1302   0.8771   0.8771   0.9407   0.9407
     1.5436   1.5436   1.6811   1.6811   2.3669   2.3669   2.7581   2.7581
     2.9710   2.9710   3.1409   3.1409   3.6282   3.6282   3.7904   3.7904
     4.4425   4.4425   5.4627   5.4627   6.4070   6.4070   7.0748   7.0748
     7.3776   7.3776

          k =-0.7622-0.3224 0.0000 ( 36511 PWs)   bands (ev):

   -44.1368 -44.1368 -22.2599 -22.2599 -22.2318 -22.2318 -22.0583 -22.0583
    -6.8732  -6.7343  -6.4326  -6.3845  -5.8330  -5.3541  -5.2376  -5.0881
    -4.5957  -4.5450   0.0199   0.1173   0.5572   1.0303   1.1038   1.2378
     1.5017   1.6646   1.9976   2.0036   2.2967   2.4396   2.4406   2.8126
     2.8598   3.1952   3.3053   3.4240   3.5840   3.6611   3.7006   3.8362
     3.8527   4.5005   5.8413   6.2519   6.3726   6.7166   6.8377   6.9654
     7.2322   7.5885

          k =-0.7622-0.3224 0.1485 ( 36492 PWs)   bands (ev):

   -44.1368 -44.1368 -22.2599 -22.2599 -22.2318 -22.2318 -22.0583 -22.0583
    -6.8537  -6.7543  -6.4338  -6.4053  -5.7578  -5.4338  -5.2024  -5.1055
    -4.5841  -4.5493   0.0511   0.2650   0.4401   0.9183   1.0647   1.1982
     1.5338   1.6386   1.8129   2.1756   2.2245   2.6130   2.7002   2.8409
     2.8947   3.1280   3.1967   3.3760   3.4781   3.6147   3.6746   3.8839
     3.9286   4.5950   5.5314   6.3395   6.5868   6.6882   6.8259   6.9869
     7.0708   7.5038

          k =-0.7622-0.3224-0.2971 ( 36508 PWs)   bands (ev):

   -44.1368 -44.1368 -22.2599 -22.2599 -22.2318 -22.2318 -22.0583 -22.0583
    -6.8045  -6.8045  -6.4291  -6.4291  -5.5947  -5.5947  -5.1494  -5.1494
    -4.5632  -4.5632   0.2044   0.2044   0.6148   0.6148   1.0512   1.0512
     1.5784   1.5784   2.0617   2.0617   2.4303   2.4303   2.8098   2.8098
     3.0089   3.0089   3.2613   3.2613   3.5883   3.5883   3.8517   3.8517
     4.1008   4.1008   6.0435   6.0435   6.4149   6.4149   6.9850   6.9850
     7.3343   7.3343

          k =-0.5081-0.2579 0.0000 ( 36480 PWs)   bands (ev):

   -44.1377 -44.1377 -22.2647 -22.2647 -22.2082 -22.2082 -22.0612 -22.0612
    -7.3023  -6.8859  -6.8655  -6.6626  -6.1562  -5.2556  -5.0922  -4.7198
    -4.6521  -4.4338   0.5297   0.5752   0.6813   1.2482   1.2959   1.5456
     1.6804   1.7191   2.0537   2.0739   2.2032   2.2716   2.3761   3.3668
     3.3772   3.4179   3.5205   3.5275   3.7431   3.8211   3.9106   4.0910
     4.4809   5.1624   5.4864   5.9204   6.0646   6.6706   6.7068   6.8228
     7.3696   7.5402

          k =-0.5081-0.2579 0.1485 ( 36485 PWs)   bands (ev):

   -44.1377 -44.1377 -22.2647 -22.2647 -22.2082 -22.2082 -22.0612 -22.0612
    -7.2691  -7.0305  -6.7625  -6.6723  -6.0570  -5.4993  -4.9156  -4.6877
    -4.6684  -4.4612   0.4858   0.6929   0.7787   1.0373   1.3037   1.4067
     1.5420   1.6243   2.0284   2.0790   2.3163   2.5527   2.8117   3.3278
     3.3846   3.4212   3.5197   3.5429   3.6323   3.7112   3.8362   4.1463
     4.3015   4.5421   6.0805   6.1369   6.2430   6.6774   6.7071   6.7299
     7.2067   7.4846

          k =-0.5081-0.2579-0.2971 ( 36478 PWs)   bands (ev):

   -44.1377 -44.1377 -22.2647 -22.2647 -22.2082 -22.2082 -22.0612 -22.0612
    -7.1735  -7.1735  -6.7024  -6.7024  -5.8091  -5.8091  -4.7750  -4.7750
    -4.5504  -4.5504   0.5810   0.5810   1.0570   1.0570   1.1346   1.1346
     1.4931   1.4931   2.0516   2.0516   2.7564   2.7564   3.1747   3.1747
     3.3803   3.3803   3.4595   3.4595   3.6864   3.6864   3.8145   3.8145
     4.2528   4.2528   6.2982   6.2982   6.6260   6.6260   6.7735   6.7735
     7.1188   7.1188

          k =-0.2541-0.1934 0.0000 ( 36410 PWs)   bands (ev):

   -44.1386 -44.1386 -22.2694 -22.2694 -22.1845 -22.1845 -22.0641 -22.0640
    -7.6343  -7.1808  -7.0572  -6.7867  -6.3546  -5.3462  -5.0200  -4.8300
    -4.7579  -3.9965   0.4987   0.8907   0.9408   1.2432   1.3662   1.3959
     1.9113   1.9355   2.1412   2.5180   2.5706   3.1689   3.3253   3.6245
     3.6559   3.7182   3.7618   3.8616   3.8814   4.2054   4.2202   4.2464
     4.4013   4.6171   5.8207   6.0037   6.3013   6.6002   6.6201   6.8201
     6.9933   7.0778

          k =-0.2541-0.1934 0.1485 ( 36427 PWs)   bands (ev):

   -44.1386 -44.1386 -22.2694 -22.2694 -22.1845 -22.1845 -22.0641 -22.0640
    -7.5977  -7.3278  -6.9374  -6.7995  -6.2598  -5.6319  -4.8672  -4.7744
    -4.6827  -4.0890   0.5406   0.9432   0.9754   1.0313   1.1986   1.5298
     1.8199   2.2399   2.3574   2.5183   2.5455   2.9218   3.3209   3.3656
     3.5886   3.6366   3.7582   3.8949   3.9757   4.1060   4.2417   4.2630
     4.6748   4.9176   5.8091   5.9074   6.1759   6.3328   6.5175   6.7171
     7.1961   7.2980

          k =-0.2541-0.1934-0.2971 ( 36422 PWs)   bands (ev):

   -44.1386 -44.1386 -22.2694 -22.2694 -22.1845 -22.1845 -22.0641 -22.0641
    -7.4911  -7.4911  -6.8429  -6.8429  -5.9947  -5.9947  -4.8146  -4.8146
    -4.3419  -4.3419   0.6969   0.6969   1.0711   1.0711   1.2258   1.2258
     2.2506   2.2506   2.4750   2.4750   2.6746   2.6746   3.1740   3.1740
     3.5739   3.5739   3.8123   3.8123   4.0636   4.0636   4.2634   4.2634
     5.0954   5.0954   5.7246   5.7246   6.1241   6.1241   6.5308   6.5308
     7.4035   7.4035

          k = 0.0000-0.1290 0.0000 ( 36417 PWs)   bands (ev):

   -44.1390 -44.1390 -22.2714 -22.2714 -22.1747 -22.1747 -22.0653 -22.0652
    -7.7541  -7.2901  -7.1341  -6.8294  -6.4112  -5.3884  -5.0120  -4.8703
    -4.8042  -3.8505   0.4057   0.7565   0.7799   1.1054   1.5225   1.5441
     2.3641   2.3892   2.7051   2.7814   2.9746   3.0198   3.2297   3.4404
     3.5836   3.7154   3.8146   4.0138   4.1955   4.2716   4.2828   4.6518
     4.9355   5.4899   5.6450   5.7533   5.8550   6.0264   6.3072   6.8163
     6.9605   7.2495

          k = 0.0000-0.1290 0.1485 ( 36419 PWs)   bands (ev):

   -44.1390 -44.1390 -22.2714 -22.2714 -22.1747 -22.1747 -22.0653 -22.0652
    -7.7166  -7.4387  -7.0044  -6.8437  -6.3221  -5.6863  -4.8826  -4.8172
    -4.6763  -3.9669   0.4614   0.8170   0.9163   1.0320   1.0842   1.9598
     2.1001   2.3931   2.5989   2.8629   2.9643   3.1353   3.3472   3.3887
     3.6732   3.7898   3.8081   3.9886   4.1369   4.2933   4.3027   4.6587
     4.8193   5.0133   5.7845   5.9771   5.9981   6.0249   6.6095   6.6291
     6.7873   7.2125

          k = 0.0000-0.1290-0.2971 ( 36464 PWs)   bands (ev):

   -44.1390 -44.1390 -22.2714 -22.2714 -22.1747 -22.1747 -22.0653 -22.0653
    -7.6071  -7.6071  -6.8939  -6.8939  -6.0600  -6.0600  -4.8477  -4.8477
    -4.2738  -4.2738   0.6692   0.6692   0.9212   0.9212   1.3939   1.3939
     2.4761   2.4761   2.6769   2.6769   2.9304   2.9304   3.4284   3.4284
     3.8220   3.8220   3.9694   3.9694   4.2470   4.2470   4.4158   4.4158
     4.6987   4.6987   5.9561   5.9561   6.2425   6.2425   6.3985   6.3985
     7.0661   7.0661

          k = 1.0162 0.0000 0.0000 ( 36499 PWs)   bands (ev):

   -44.1364 -44.1364 -22.2577 -22.2577 -22.2417 -22.2417 -22.0571 -22.0571
    -6.7024  -6.6823  -5.9022  -5.8923  -5.8343  -5.8253  -5.4032  -5.4024
    -4.5318  -4.5086   0.0141   0.0589   0.3488   0.3866   1.0029   1.0327
     1.4793   1.6529   2.2358   2.3674   2.3762   2.3990   2.7855   2.8035
     2.8413   2.8945   3.2446   3.2676   3.2804   3.4189   3.6112   3.6869
     3.7061   4.0484   6.4606   6.5157   6.5174   6.6193   7.0270   7.0713
     7.0812   7.0912

          k = 1.0162 0.0000 0.1485 ( 36485 PWs)   bands (ev):

   -44.1364 -44.1364 -22.2577 -22.2577 -22.2417 -22.2417 -22.0571 -22.0571
    -6.6987  -6.6844  -5.9202  -5.9125  -5.8159  -5.8104  -5.3983  -5.3975
    -4.5325  -4.5161  -0.0749  -0.0604   0.5832   0.5873   1.0247   1.0275
     1.4748   1.5821   1.9993   1.9998   2.3743   2.3807   2.6621   2.7913
     2.9807   3.0605   3.0662   3.1894   3.5240   3.6336   3.6774   3.7143
     4.0148   4.1541   5.9372   5.9836   6.4439   6.5296   7.0489   7.0601
     7.3047   7.3100

          k = 1.0162 0.0000-0.2971 ( 36514 PWs)   bands (ev):

   -44.1364 -44.1364 -22.2577 -22.2577 -22.2417 -22.2417 -22.0571 -22.0571
    -6.6908  -6.6908  -5.9305  -5.9305  -5.8014  -5.8014  -5.3929  -5.3929
    -4.5284  -4.5284  -0.1303  -0.1303   0.8772   0.8772   0.9412   0.9412
     1.5442   1.5442   1.6820   1.6820   2.3577   2.3577   2.7472   2.7472
     3.0411   3.0411   3.0887   3.0887   3.6329   3.6329   3.7852   3.7852
     4.4429   4.4429   5.4649   5.4649   6.4065   6.4065   7.0767   7.0767
     7.3780   7.3780

          k = 1.2703 0.0645 0.0000 ( 36468 PWs)   bands (ev):

   -44.1368 -44.1368 -22.2599 -22.2599 -22.2318 -22.2318 -22.0583 -22.0583
    -6.8620  -6.7384  -6.4412  -6.3827  -5.8334  -5.3578  -5.2368  -5.0887
    -4.5992  -4.5405   0.0248   0.1070   0.5392   1.0157   1.1157   1.2255
     1.5062   1.7105   1.9898   2.0505   2.3376   2.4340   2.4592   2.8400
     2.8652   3.1380   3.3259   3.4775   3.5313   3.5643   3.7046   3.8079
     3.9116   4.4455   5.8437   6.2485   6.4072   6.6578   6.8727   7.0229
     7.1966   7.5908

          k = 1.2703 0.0645 0.1485 ( 36490 PWs)   bands (ev):

   -44.1368 -44.1368 -22.2599 -22.2599 -22.2318 -22.2318 -22.0583 -22.0583
    -6.8435  -6.7548  -6.4424  -6.4075  -5.7573  -5.4344  -5.2040  -5.1064
    -4.5865  -4.5461   0.0483   0.2640   0.4295   0.9057   1.0718   1.1836
     1.5594   1.6373   1.8052   2.2525   2.2933   2.5978   2.6994   2.8516
     2.9077   3.1357   3.1669   3.3683   3.4391   3.5666   3.7500   3.8218
     3.9015   4.5949   5.5084   6.3667   6.5570   6.6883   6.8153   7.0292
     7.0857   7.4726

          k = 1.2703 0.0645-0.2971 ( 36480 PWs)   bands (ev):

   -44.1368 -44.1368 -22.2599 -22.2599 -22.2318 -22.2318 -22.0583 -22.0583
    -6.7984  -6.7984  -6.4362  -6.4362  -5.5937  -5.5937  -5.1512  -5.1512
    -4.5629  -4.5629   0.1983   0.1983   0.6204   0.6204   1.0348   1.0348
     1.5838   1.5838   2.0888   2.0888   2.4912   2.4912   2.8175   2.8175
     3.0175   3.0175   3.1911   3.1911   3.5878   3.5878   3.8446   3.8446
     4.0902   4.0902   6.0219   6.0219   6.4123   6.4123   7.0340   7.0340
     7.2924   7.2924

          k =-0.5081-0.3869 0.0000 ( 36463 PWs)   bands (ev):

   -44.1377 -44.1377 -22.2647 -22.2647 -22.2082 -22.2082 -22.0612 -22.0612
    -7.2894  -6.8844  -6.8635  -6.6745  -6.1662  -5.2545  -5.0998  -4.7245
    -4.6445  -4.4349   0.5163   0.5820   0.6759   1.2588   1.4117   1.5883
     1.6696   1.7182   2.0405   2.1137   2.2265   2.2817   2.3747   3.2588
     3.3914   3.4286   3.4471   3.5749   3.7020   3.7932   3.8237   4.0846
     4.4689   5.1614   5.4771   5.8296   6.1286   6.7376   6.7829   6.8274
     7.2871   7.5316

          k =-0.5081-0.3869 0.1485 ( 36477 PWs)   bands (ev):

   -44.1377 -44.1377 -22.2647 -22.2647 -22.2082 -22.2082 -22.0612 -22.0612
    -7.2564  -7.0218  -6.7706  -6.6848  -6.0627  -5.4986  -4.9268  -4.6856
    -4.6672  -4.4590   0.4853   0.7010   0.7683   1.0334   1.3679   1.4082
     1.5994   1.6863   2.0254   2.0743   2.3088   2.5941   2.8271   3.2186
     3.3858   3.4224   3.4618   3.5507   3.6303   3.7037   3.7869   4.1127
     4.2396   4.5476   6.0273   6.1548   6.2293   6.6256   6.7895   6.8528
     7.1297   7.4837

          k =-0.5081-0.3869-0.2971 ( 36492 PWs)   bands (ev):

   -44.1377 -44.1377 -22.2647 -22.2647 -22.2082 -22.2082 -22.0612 -22.0612
    -7.1619  -7.1619  -6.7152  -6.7152  -5.8100  -5.8100  -4.7840  -4.7840
    -4.5444  -4.5444   0.5883   0.5883   1.0557   1.0557   1.1178   1.1178
     1.5995   1.5995   2.0361   2.0361   2.7886   2.7886   3.1678   3.1678
     3.3384   3.3384   3.4232   3.4232   3.6841   3.6841   3.7992   3.7992
     4.2005   4.2005   6.2621   6.2621   6.6607   6.6607   6.7701   6.7701
     7.1362   7.1362

          k =-0.2541-0.3224 0.0000 ( 36485 PWs)   bands (ev):

   -44.1386 -44.1386 -22.2694 -22.2694 -22.1845 -22.1845 -22.0641 -22.0640
    -7.6218  -7.1787  -7.0478  -6.7993  -6.3754  -5.3468  -5.0312  -4.8351
    -4.7480  -3.9980   0.5248   0.9034   1.0640   1.2921   1.3608   1.4676
     1.9481   1.9697   2.1417   2.4417   2.5247   3.2534   3.2807   3.4460
     3.6088   3.6169   3.7426   3.8464   3.8950   4.1205   4.1590   4.2140
     4.3728   4.5907   5.9048   6.0254   6.3549   6.5802   6.7048   6.8363
     6.9233   7.0149

          k =-0.2541-0.3224 0.1485 ( 36445 PWs)   bands (ev):

   -44.1386 -44.1386 -22.2694 -22.2694 -22.1845 -22.1845 -22.0641 -22.0640
    -7.5854  -7.3188  -6.9401  -6.8121  -6.2742  -5.6331  -4.8883  -4.7697
    -4.6743  -4.0889   0.5620   0.9618   1.0032   1.1554   1.2750   1.5535
     1.8328   2.2426   2.3903   2.4483   2.5165   2.9017   3.3596   3.3856
     3.4372   3.5388   3.6918   3.8839   3.9119   4.0722   4.1577   4.2140
     4.6948   4.8884   5.7936   5.9383   6.1706   6.3505   6.6165   6.7326
     7.1499   7.2819

          k =-0.2541-0.3224-0.2971 ( 36442 PWs)   bands (ev):

   -44.1386 -44.1386 -22.2694 -22.2694 -22.1845 -22.1845 -22.0641 -22.0641
    -7.4797  -7.4797  -6.8539  -6.8539  -6.0000  -6.0000  -4.8221  -4.8221
    -4.3383  -4.3383   0.7108   0.7108   1.1941   1.1941   1.2378   1.2378
     2.2536   2.2536   2.4397   2.4397   2.6683   2.6683   3.2138   3.2138
     3.4168   3.4168   3.7933   3.7933   4.0290   4.0290   4.1950   4.1950
     5.1060   5.1060   5.6811   5.6811   6.1045   6.1045   6.6345   6.6345
     7.3753   7.3753

          k = 0.0000-0.2579 0.0000 ( 36445 PWs)   bands (ev):

   -44.1390 -44.1390 -22.2714 -22.2714 -22.1747 -22.1747 -22.0653 -22.0652
    -7.7430  -7.2883  -7.1229  -6.8414  -6.4332  -5.3900  -5.0230  -4.8772
    -4.7924  -3.8520   0.4458   0.7688   0.8926   1.1514   1.5480   1.6025
     2.3688   2.3923   2.7230   2.7786   2.9710   3.0454   3.3111   3.3323
     3.3751   3.6661   3.6887   3.9671   4.1374   4.1522   4.1955   4.6522
     4.9120   5.4351   5.7087   5.7713   5.8981   6.0974   6.3989   6.7551
     6.9612   7.2048

          k = 0.0000-0.2579 0.1485 ( 36452 PWs)   bands (ev):

   -44.1390 -44.1390 -22.2714 -22.2714 -22.1747 -22.1747 -22.0653 -22.0652
    -7.7057  -7.4306  -7.0042  -6.8553  -6.3384  -5.6885  -4.9036  -4.8111
    -4.6690  -3.9670   0.4955   0.9174   0.9495   1.0803   1.1238   1.9784
     2.1379   2.3982   2.6081   2.8661   2.9619   3.1361   3.2628   3.3174
     3.6275   3.6572   3.7659   3.9171   4.1313   4.1678   4.1864   4.6588
     4.8062   5.0002   5.8170   5.9883   6.0367   6.0678   6.5812   6.6741
     6.7894   7.1774

          k = 0.0000-0.2579-0.2971 ( 36454 PWs)   bands (ev):

   -44.1390 -44.1390 -22.2714 -22.2714 -22.1747 -22.1747 -22.0653 -22.0653
    -7.5969  -7.5969  -6.9027  -6.9027  -6.0668  -6.0668  -4.8542  -4.8542
    -4.2711  -4.2711   0.7022   0.7022   1.0087   1.0087   1.4139   1.4139
     2.4827   2.4827   2.6990   2.6990   2.9309   2.9309   3.2969   3.2969
     3.7720   3.7720   3.9531   3.9531   4.1089   4.1089   4.4041   4.4041
     4.6958   4.6958   5.9514   5.9514   6.2818   6.2818   6.4039   6.4039
     7.0517   7.0517

          k = 1.5243 0.0000 0.0000 ( 36439 PWs)   bands (ev):

   -44.1377 -44.1377 -22.2647 -22.2647 -22.2082 -22.2082 -22.0612 -22.0612
    -7.2838  -6.8843  -6.8626  -6.6791  -6.1704  -5.2540  -5.1030  -4.7259
    -4.6419  -4.4353   0.5110   0.5873   0.6697   1.2630   1.4961   1.5868
     1.6504   1.7152   2.0510   2.1321   2.2459   2.2644   2.3718   3.2114
     3.3764   3.4029   3.4584   3.6703   3.6928   3.6980   3.7835   4.1013
     4.4634   5.1592   5.4738   5.7920   6.1576   6.7014   6.8390   6.8783
     7.2404   7.5623

          k = 1.5243 0.0000 0.1485 ( 36476 PWs)   bands (ev):

   -44.1377 -44.1377 -22.2647 -22.2647 -22.2082 -22.2082 -22.0612 -22.0612
    -7.2510  -7.0181  -6.7743  -6.6900  -6.0651  -5.4983  -4.9313  -4.6852
    -4.6663  -4.4581   0.4852   0.7047   0.7624   1.0320   1.4021   1.4049
     1.6225   1.7171   2.0332   2.0640   2.3071   2.6019   2.8358   3.1723
     3.3453   3.4324   3.4451   3.6112   3.6344   3.7049   3.7117   4.1372
     4.1898   4.5498   6.0005   6.1657   6.2260   6.5961   6.8325   6.9191
     7.0814   7.4956

          k = 1.5243 0.0000-0.2971 ( 36508 PWs)   bands (ev):

   -44.1377 -44.1377 -22.2647 -22.2647 -22.2082 -22.2082 -22.0612 -22.0612
    -7.1568  -7.1568  -6.7207  -6.7207  -5.8103  -5.8103  -4.7876  -4.7876
    -4.5421  -4.5421   0.5911   0.5911   1.0551   1.0551   1.1118   1.1118
     1.6513   1.6513   2.0239   2.0239   2.8055   2.8055   3.1334   3.1334
     3.3374   3.3374   3.4210   3.4210   3.6809   3.6809   3.7914   3.7914
     4.1799   4.1799   6.2476   6.2476   6.6560   6.6560   6.7835   6.7835
     7.1497   7.1497

          k =-0.2541-0.4514 0.0000 ( 36444 PWs)   bands (ev):

   -44.1386 -44.1386 -22.2694 -22.2694 -22.1845 -22.1845 -22.0641 -22.0640
    -7.6127  -7.1773  -7.0418  -6.8071  -6.3909  -5.3471  -5.0393  -4.8362
    -4.7431  -3.9990   0.5346   0.9133   1.1807   1.3178   1.3552   1.5545
     1.9867   1.9960   2.1374   2.3564   2.4494   3.1969   3.3109   3.3764
     3.5434   3.6298   3.7621   3.8144   3.8391   4.0839   4.1315   4.1672
     4.3807   4.5670   5.9745   6.0360   6.3802   6.5619   6.7663   6.8427
     6.8437   6.9988

          k =-0.2541-0.4514 0.1485 ( 36461 PWs)   bands (ev):

   -44.1386 -44.1386 -22.2694 -22.2694 -22.1845 -22.1845 -22.0641 -22.0640
    -7.5764  -7.3122  -6.9428  -6.8206  -6.2846  -5.6338  -4.9014  -4.7676
    -4.6690  -4.0888   0.5692   0.9757   1.0114   1.2891   1.3400   1.5760
     1.8535   2.2411   2.3641   2.4103   2.4634   2.8946   3.2906   3.3118
     3.4171   3.5569   3.7335   3.8487   3.8630   3.9740   4.1532   4.1794
     4.7299   4.8526   5.7854   5.9622   6.1772   6.3237   6.6842   6.7418
     7.1284   7.2691

          k =-0.2541-0.4514-0.2971 ( 36490 PWs)   bands (ev):

   -44.1386 -44.1386 -22.2694 -22.2694 -22.1845 -22.1845 -22.0641 -22.0641
    -7.4713  -7.4713  -6.8620  -6.8620  -6.0036  -6.0036  -4.8274  -4.8274
    -4.3357  -4.3357   0.7148   0.7148   1.2435   1.2435   1.3150   1.3150
     2.2591   2.2591   2.3792   2.3792   2.6646   2.6646   3.2267   3.2267
     3.3148   3.3148   3.8076   3.8076   3.9859   3.9859   4.1607   4.1607
     5.1149   5.1149   5.6549   5.6549   6.0833   6.0833   6.6969   6.6969
     7.3583   7.3583

          k = 0.0000-0.3869 0.0000 ( 36477 PWs)   bands (ev):

   -44.1390 -44.1390 -22.2714 -22.2714 -22.1747 -22.1747 -22.0653 -22.0652
    -7.7315  -7.2864  -7.1121  -6.8520  -6.4566  -5.3915  -5.0349  -4.8788
    -4.7852  -3.8535   0.4693   0.7818   1.0469   1.2142   1.5719   1.6699
     2.3736   2.3963   2.7422   2.7757   2.9668   3.0733   3.0876   3.0960
     3.4789   3.6547   3.6614   3.9525   3.9552   4.0154   4.1954   4.6529
     4.8890   5.4043   5.7778   5.7894   5.9487   6.1402   6.4614   6.6603
     6.9617   7.1795

          k = 0.0000-0.3869 0.1485 ( 36452 PWs)   bands (ev):

   -44.1390 -44.1390 -22.2714 -22.2714 -22.1747 -22.1747 -22.0653 -22.0652
    -7.6944  -7.4224  -7.0050  -6.8662  -6.3550  -5.6905  -4.9214  -4.8076
    -4.6625  -3.9671   0.5118   0.9748   1.0151   1.1600   1.2122   2.0000
     2.1739   2.4035   2.6171   2.8705   2.9591   2.9844   3.0457   3.3222
     3.5832   3.6732   3.7416   3.9106   4.0252   4.0593   4.1254   4.6592
     4.7932   4.9954   5.8593   5.9999   6.0687   6.0814   6.5331   6.7018
     6.7915   7.1472

          k = 0.0000-0.3869-0.2971 ( 36454 PWs)   bands (ev):

   -44.1390 -44.1390 -22.2714 -22.2714 -22.1747 -22.1747 -22.0653 -22.0653
    -7.5864  -7.5864  -6.9120  -6.9120  -6.0734  -6.0734  -4.8608  -4.8608
    -4.2683  -4.2683   0.7128   0.7128   1.1464   1.1464   1.4351   1.4351
     2.4892   2.4892   2.6957   2.6957   2.9317   2.9317   3.0998   3.0998
     3.7976   3.7976   3.9364   3.9364   3.9913   3.9913   4.3872   4.3872
     4.6932   4.6932   5.9358   5.9358   6.3100   6.3100   6.4096   6.4096
     7.0254   7.0254

          k =-2.0325 0.0000 0.0000 ( 36452 PWs)   bands (ev):

   -44.1390 -44.1390 -22.2714 -22.2714 -22.1747 -22.1747 -22.0653 -22.0652
    -7.7266  -7.2856  -7.1079  -6.8558  -6.4668  -5.3920  -5.0400  -4.8784
    -4.7830  -3.8541   0.4744   0.7875   1.1629   1.2034   1.5813   1.7117
     2.3756   2.3984   2.7506   2.7746   2.9333   2.9648   2.9879   3.1113
     3.5912   3.6499   3.6683   3.8269   3.9465   3.9554   4.1953   4.6532
     4.8795   5.3954   5.7969   5.8075   5.9754   6.1533   6.4810   6.6099
     6.9619   7.1730

          k =-2.0325 0.0000 0.1485 ( 36456 PWs)   bands (ev):

   -44.1390 -44.1390 -22.2714 -22.2714 -22.1747 -22.1747 -22.0653 -22.0652
    -7.6896  -7.4190  -7.0057  -6.8705  -6.3620  -5.6913  -4.9281  -4.8065
    -4.6600  -3.9672   0.5142   0.9854   1.0434   1.2086   1.2726   2.0098
     2.1901   2.4057   2.6208   2.8727   2.8761   2.9300   2.9578   3.3623
     3.5630   3.7243   3.7314   3.8985   3.9523   4.0068   4.1229   4.6595
     4.7879   4.9948   5.8816   6.0048   6.0780   6.0816   6.5086   6.7084
     6.7924   7.1369

          k =-2.0325 0.0000-0.2971 ( 36460 PWs)   bands (ev):

   -44.1390 -44.1390 -22.2714 -22.2714 -22.1747 -22.1747 -22.0653 -22.0653
    -7.5819  -7.5819  -6.9160  -6.9160  -6.0760  -6.0760  -4.8635  -4.8635
    -4.2671  -4.2671   0.7133   0.7133   1.2202   1.2202   1.4444   1.4444
     2.4920   2.4920   2.6675   2.6675   2.9321   2.9321   3.0273   3.0273
     3.8252   3.8252   3.9294   3.9294   3.9360   3.9360   4.3809   4.3809
     4.6922   4.6922   5.9268   5.9268   6.3191   6.3191   6.4120   6.4120
     7.0130   7.0130

     the Fermi energy is     5.4488 ev

!    total energy              =   -4240.95138953 Ry

     total all-electron energy =   -150287.645084 Ry
     estimated scf accuracy    <          6.1E-11 Ry
     smearing contrib. (-TS)   =      -0.00000865 Ry
     internal energy E=F+TS    =   -4240.95138088 Ry

     The total energy is F=E-TS. E is the sum of the following terms:
     one-electron contribution =    -166.20474974 Ry
     hartree contribution      =     116.58140277 Ry
     xc contribution           =    -201.46563772 Ry
     ewald contribution        =    -222.34739572 Ry
     one-center paw contrib.   =   -3767.51500048 Ry

     convergence has been achieved in  16 iterations

     Forces acting on atoms (cartesian axes, Ry/au):

     atom    1 type  1   force =    -0.00000000   -0.00740781    0.00000000
     atom    2 type  1   force =     0.00000000    0.00740781    0.00000000
     atom    3 type  2   force =     0.00000000    0.00019593    0.00000000
     atom    4 type  2   force =    -0.00000000   -0.00019593    0.00000000
     atom    5 type  2   force =     0.00000000    0.00159721    0.00050843
     atom    6 type  2   force =    -0.00000000   -0.00159721   -0.00050843
     atom    7 type  2   force =     0.00000000    0.00159721   -0.00050843
     atom    8 type  2   force =     0.00000000   -0.00159721    0.00050843
     atom    9 type  2   force =     0.00000000    0.00959802    0.00928761
     atom   10 type  2   force =     0.00000000   -0.00959802   -0.00928761
     atom   11 type  2   force =     0.00000000    0.00959802   -0.00928761
     atom   12 type  2   force =     0.00000000   -0.00959802    0.00928761

     Total force =     0.028889     Total SCF correction =     0.000011


     Computing stress (Cartesian axis) and pressure

          total   stress  (Ry/bohr**3)                   (kbar)     P=       -2.29
  -0.00001273   0.00000000   0.00000000           -1.87        0.00        0.00
   0.00000000  -0.00001357   0.00000000            0.00       -2.00        0.00
   0.00000000   0.00000000  -0.00002039            0.00        0.00       -3.00

 
     init_run     :     17.82s CPU     18.29s WALL (       1 calls)
     electrons    :    923.04s CPU    933.63s WALL (       1 calls)
     forces       :      6.47s CPU      6.68s WALL (       1 calls)
     stress       :     43.60s CPU     44.18s WALL (       1 calls)

     Called by init_run:
     wfcinit      :     13.27s CPU     13.42s WALL (       1 calls)
     potinit      :      1.43s CPU      1.48s WALL (       1 calls)
     hinit0       :      1.76s CPU      1.82s WALL (       1 calls)

     Called by electrons:
     c_bands      :    784.69s CPU    788.28s WALL (      17 calls)
     sum_band     :    114.82s CPU    118.54s WALL (      17 calls)
     v_of_rho     :      5.17s CPU      5.43s WALL (      17 calls)
     newd         :     13.27s CPU     16.45s WALL (      17 calls)
     PAW_pot      :      5.31s CPU      5.32s WALL (      17 calls)
     mix_rho      :      0.76s CPU      0.78s WALL (      17 calls)

     Called by c_bands:
     init_us_2    :     10.41s CPU     10.47s WALL (    2331 calls)
     cegterg      :    714.96s CPU    718.07s WALL (    1071 calls)

     Called by *egterg:
     cdiaghg      :     29.43s CPU     29.50s WALL (    8579 calls)
     h_psi        :    536.06s CPU    538.96s WALL (    8705 calls)
     s_psi        :     47.10s CPU     47.18s WALL (    8705 calls)
     g_psi        :      2.09s CPU      2.10s WALL (    7571 calls)

     Called by h_psi:
     h_psi:calbec :     39.99s CPU     40.05s WALL (    8705 calls)
     vloc_psi     :    446.17s CPU    448.84s WALL (    8705 calls)
     add_vuspsi   :     46.77s CPU     46.88s WALL (    8705 calls)

     General routines
     calbec       :     52.06s CPU     52.17s WALL (   10091 calls)
     fft          :      3.02s CPU      3.14s WALL (     245 calls)
     ffts         :      0.07s CPU      0.07s WALL (      34 calls)
     fftw         :    404.48s CPU    406.84s WALL (  430248 calls)
     interpolate  :      0.28s CPU      0.28s WALL (      17 calls)
 
     Parallel routines
 
     PWSCF        :  16m31.18s CPU  16m43.10s WALL

 
   This run was terminated on:  15:34: 8  19Nov2021            

=------------------------------------------------------------------------------=
   JOB DONE.
=------------------------------------------------------------------------------=
