
     Program PWSCF v.6.7MaX starts on 19Nov2021 at 14:45:56 

     This program is part of the open-source Quantum ESPRESSO suite
     for quantum simulation of materials; please cite
         "P. Giannozzi et al., J. Phys.:Condens. Matter 21 395502 (2009);
         "P. Giannozzi et al., J. Phys.:Condens. Matter 29 465901 (2017);
          URL http://www.quantum-espresso.org", 
     in publications or presentations arising from this work. More details at
     http://www.quantum-espresso.org/quote

     Parallel version (MPI), running on    10 processors

     MPI processes distributed on     1 nodes
     R & G space division:  proc/nbgrp/npool/nimage =      10
     Waiting for input...
     Reading input from standard input

     Current dimensions of program PWSCF are:
     Max number of different atomic species (ntypx) = 10
     Max number of k-points (npk) =  40000
     Max angular momentum in pseudopotentials (lmaxx) =  3
     file Zr.pbe-spn-kjpaw_psl.1.0.0.UPF: wavefunction(s)  4S 4P renormalized
     file Te.pbe-n-kjpaw_psl.1.0.0.UPF: wavefunction(s)  5S 5P renormalized

     Subspace diagonalization in iterative solution of the eigenvalue problem:
     a serial algorithm will be used

     Message from routine setup:
     using ibrav=0 with symmetry is DISCOURAGED, use correct ibrav instead
 
     Parallelization info
     --------------------
     sticks:   dense  smooth     PW     G-vecs:    dense   smooth      PW
     Min         734     293     87               115340    29174    4753
     Max         735     295     88               115345    29176    4760
     Sum        7345    2937    873              1153415   291749   47557
 


     bravais-lattice index     =            0
     lattice parameter (alat)  =      15.5510  a.u.
     unit-cell volume          =    3018.5011 (a.u.)^3
     number of atoms/cell      =           12
     number of atomic types    =            2
     number of electrons       =        84.00
     number of Kohn-Sham states=           50
     kinetic-energy cutoff     =      80.0000  Ry
     charge density cutoff     =     800.0000  Ry
     scf convergence threshold =      1.0E-10
     mixing beta               =       0.7000
     number of iterations used =            8  plain     mixing
     Exchange-correlation= SLA  PW   PBX  PBC
                           (   1   4   3   4   0   0   0)

     celldm(1)=  15.551040  celldm(2)=   0.000000  celldm(3)=   0.000000
     celldm(4)=   0.000000  celldm(5)=   0.000000  celldm(6)=   0.000000

     crystal axes: (cart. coord. in units of alat)
               a(1) = (   0.246007  -0.969268   0.000000 )  
               a(2) = (   0.246007   0.969268   0.000000 )  
               a(3) = (   0.000000   0.000000   1.683031 )  

     reciprocal axes: (cart. coord. in units 2 pi/alat)
               b(1) = (  2.032465 -0.515853  0.000000 )  
               b(2) = (  2.032465  0.515853  0.000000 )  
               b(3) = (  0.000000  0.000000  0.594166 )  


     PseudoPot. # 1 for Zr read from file:
     pseudo/Zr.pbe-spn-kjpaw_psl.1.0.0.UPF
     MD5 check sum: 02112c41713a0468aff2bb39ef194e36
     Pseudo is Projector augmented-wave + core cor, Zval = 12.0
     Generated using &quot;atomic&quot; code by A. Dal Corso  v.6.2.2
     Shape of augmentation charge: PSQ
     Using radial grid of 1225 points,  6 beta functions with: 
                l(1) =   0
                l(2) =   0
                l(3) =   1
                l(4) =   1
                l(5) =   2
                l(6) =   2
     Q(r) pseudized with 0 coefficients 


     PseudoPot. # 2 for Te read from file:
     pseudo/Te.pbe-n-kjpaw_psl.1.0.0.UPF
     MD5 check sum: 66247bff2bd9dbf220fbb0bf5ab56e9d
     Pseudo is Projector augmented-wave + core cor, Zval =  6.0
     Generated using &quot;atomic&quot; code by A. Dal Corso  v.6.3
     Shape of augmentation charge: PSQ
     Using radial grid of 1245 points,  6 beta functions with: 
                l(1) =   0
                l(2) =   0
                l(3) =   1
                l(4) =   1
                l(5) =   2
                l(6) =   2
     Q(r) pseudized with 0 coefficients 


     atomic species   valence    mass     pseudopotential
        Zr            12.00    91.22000     Zr( 1.00)
        Te             6.00   127.60000     Te( 1.00)

      8 Sym. Ops., with inversion, found ( 4 have fractional translation)



   Cartesian axes

     site n.     atom                  positions (alat units)
         1           Zr  tau(   1) = (   0.0000000   0.6050941   0.4207578  )
         2           Zr  tau(   2) = (   0.2460067   0.3641740   1.2622733  )
         3           Te  tau(   3) = (   0.2460067   0.3342381   0.4207578  )
         4           Te  tau(   4) = (   0.0000000   0.6350300   1.2622733  )
         5           Te  tau(   5) = (   0.2460067   0.8100595   0.2522229  )
         6           Te  tau(   6) = (   0.0000000   0.1592087   1.4308082  )
         7           Te  tau(   7) = (   0.2460067   0.8100595   0.5892927  )
         8           Te  tau(   8) = (   0.0000000   0.1592087   1.0937384  )
         9           Te  tau(   9) = (   0.0000000   0.4157912   0.7317405  )
        10           Te  tau(  10) = (   0.2460067   0.5534769   0.9512906  )
        11           Te  tau(  11) = (   0.0000000   0.4157912   0.1097751  )
        12           Te  tau(  12) = (   0.2460067   0.5534769   1.5732560  )

     number of k points=    63  Methfessel-Paxton smearing, width (Ry)=  0.0030
                       cart. coord. in units 2pi/alat
        k(    1) = (   0.0000000   0.0000000   0.0000000), wk =   0.0078125
        k(    2) = (   0.0000000   0.0000000   0.1485415), wk =   0.0156250
        k(    3) = (   0.0000000   0.0000000  -0.2970830), wk =   0.0078125
        k(    4) = (   0.2540581   0.0644816   0.0000000), wk =   0.0312500
        k(    5) = (   0.2540581   0.0644816   0.1485415), wk =   0.0625000
        k(    6) = (   0.2540581   0.0644816  -0.2970830), wk =   0.0312500
        k(    7) = (   0.5081162   0.1289633   0.0000000), wk =   0.0312500
        k(    8) = (   0.5081162   0.1289633   0.1485415), wk =   0.0625000
        k(    9) = (   0.5081162   0.1289633  -0.2970830), wk =   0.0312500
        k(   10) = (   0.7621743   0.1934449   0.0000000), wk =   0.0312500
        k(   11) = (   0.7621743   0.1934449   0.1485415), wk =   0.0625000
        k(   12) = (   0.7621743   0.1934449  -0.2970830), wk =   0.0312500
        k(   13) = (  -1.0162324  -0.2579266   0.0000000), wk =   0.0156250
        k(   14) = (  -1.0162324  -0.2579266   0.1485415), wk =   0.0312500
        k(   15) = (  -1.0162324  -0.2579266  -0.2970830), wk =   0.0156250
        k(   16) = (   0.5081162   0.0000000   0.0000000), wk =   0.0156250
        k(   17) = (   0.5081162   0.0000000   0.1485415), wk =   0.0312500
        k(   18) = (   0.5081162   0.0000000  -0.2970830), wk =   0.0156250
        k(   19) = (   0.7621743   0.0644816   0.0000000), wk =   0.0312500
        k(   20) = (   0.7621743   0.0644816   0.1485415), wk =   0.0625000
        k(   21) = (   0.7621743   0.0644816  -0.2970830), wk =   0.0312500
        k(   22) = (   1.0162324   0.1289633   0.0000000), wk =   0.0312500
        k(   23) = (   1.0162324   0.1289633   0.1485415), wk =   0.0625000
        k(   24) = (   1.0162324   0.1289633  -0.2970830), wk =   0.0312500
        k(   25) = (  -0.7621743  -0.3224082   0.0000000), wk =   0.0312500
        k(   26) = (  -0.7621743  -0.3224082   0.1485415), wk =   0.0625000
        k(   27) = (  -0.7621743  -0.3224082  -0.2970830), wk =   0.0312500
        k(   28) = (  -0.5081162  -0.2579266   0.0000000), wk =   0.0312500
        k(   29) = (  -0.5081162  -0.2579266   0.1485415), wk =   0.0625000
        k(   30) = (  -0.5081162  -0.2579266  -0.2970830), wk =   0.0312500
        k(   31) = (  -0.2540581  -0.1934449   0.0000000), wk =   0.0312500
        k(   32) = (  -0.2540581  -0.1934449   0.1485415), wk =   0.0625000
        k(   33) = (  -0.2540581  -0.1934449  -0.2970830), wk =   0.0312500
        k(   34) = (   0.0000000  -0.1289633   0.0000000), wk =   0.0156250
        k(   35) = (   0.0000000  -0.1289633   0.1485415), wk =   0.0312500
        k(   36) = (   0.0000000  -0.1289633  -0.2970830), wk =   0.0156250
        k(   37) = (   1.0162324   0.0000000   0.0000000), wk =   0.0156250
        k(   38) = (   1.0162324   0.0000000   0.1485415), wk =   0.0312500
        k(   39) = (   1.0162324   0.0000000  -0.2970830), wk =   0.0156250
        k(   40) = (   1.2702905   0.0644816   0.0000000), wk =   0.0312500
        k(   41) = (   1.2702905   0.0644816   0.1485415), wk =   0.0625000
        k(   42) = (   1.2702905   0.0644816  -0.2970830), wk =   0.0312500
        k(   43) = (  -0.5081162  -0.3868899   0.0000000), wk =   0.0312500
        k(   44) = (  -0.5081162  -0.3868899   0.1485415), wk =   0.0625000
        k(   45) = (  -0.5081162  -0.3868899  -0.2970830), wk =   0.0312500
        k(   46) = (  -0.2540581  -0.3224082   0.0000000), wk =   0.0312500
        k(   47) = (  -0.2540581  -0.3224082   0.1485415), wk =   0.0625000
        k(   48) = (  -0.2540581  -0.3224082  -0.2970830), wk =   0.0312500
        k(   49) = (   0.0000000  -0.2579266   0.0000000), wk =   0.0156250
        k(   50) = (   0.0000000  -0.2579266   0.1485415), wk =   0.0312500
        k(   51) = (   0.0000000  -0.2579266  -0.2970830), wk =   0.0156250
        k(   52) = (   1.5243485   0.0000000   0.0000000), wk =   0.0156250
        k(   53) = (   1.5243485   0.0000000   0.1485415), wk =   0.0312500
        k(   54) = (   1.5243485   0.0000000  -0.2970830), wk =   0.0156250
        k(   55) = (  -0.2540581  -0.4513715   0.0000000), wk =   0.0312500
        k(   56) = (  -0.2540581  -0.4513715   0.1485415), wk =   0.0625000
        k(   57) = (  -0.2540581  -0.4513715  -0.2970830), wk =   0.0312500
        k(   58) = (   0.0000000  -0.3868899   0.0000000), wk =   0.0156250
        k(   59) = (   0.0000000  -0.3868899   0.1485415), wk =   0.0312500
        k(   60) = (   0.0000000  -0.3868899  -0.2970830), wk =   0.0156250
        k(   61) = (  -2.0324647   0.0000000   0.0000000), wk =   0.0078125
        k(   62) = (  -2.0324647   0.0000000   0.1485415), wk =   0.0156250
        k(   63) = (  -2.0324647   0.0000000  -0.2970830), wk =   0.0078125

     Dense  grid:  1153415 G-vectors     FFT dimensions: ( 144, 144, 240)

     Smooth grid:   291749 G-vectors     FFT dimensions: (  90,  90, 150)

     Estimated max dynamical RAM per process >     657.19 MB

     Estimated total dynamical RAM >       6.42 GB

     Initial potential from superposition of free atoms

     starting charge   83.99353, renormalised to   84.00000
     Starting wfcs are   66 randomized atomic wfcs
     Checking if some PAW data can be deallocated... 

     total cpu time spent up to now is       35.9 secs

     Self-consistent Calculation

     iteration #  1     ecut=    80.00 Ry     beta= 0.70
     Davidson diagonalization with overlap
     ethr =  1.00E-02,  avg # of iterations =  2.1

     Threshold (ethr) on eigenvalues was too large:
     Diagonalizing with lowered threshold

     Davidson diagonalization with overlap
     ethr =  4.19E-04,  avg # of iterations =  4.0

     total cpu time spent up to now is      194.8 secs

     total energy              =   -4240.73140087 Ry
     estimated scf accuracy    <       0.43538122 Ry

     iteration #  2     ecut=    80.00 Ry     beta= 0.70
     Davidson diagonalization with overlap
     ethr =  5.18E-04,  avg # of iterations =  7.7

     total cpu time spent up to now is      305.1 secs

     total energy              =   -4240.63797971 Ry
     estimated scf accuracy    <       2.04991220 Ry

     iteration #  3     ecut=    80.00 Ry     beta= 0.70
     Davidson diagonalization with overlap
     ethr =  5.18E-04,  avg # of iterations =  5.3

     total cpu time spent up to now is      398.3 secs

     total energy              =   -4240.93848228 Ry
     estimated scf accuracy    <       0.00970362 Ry

     iteration #  4     ecut=    80.00 Ry     beta= 0.70
     Davidson diagonalization with overlap
     c_bands:  2 eigenvalues not converged
     c_bands:  1 eigenvalues not converged
     c_bands:  2 eigenvalues not converged
     c_bands:  4 eigenvalues not converged
     c_bands:  1 eigenvalues not converged
     c_bands:  2 eigenvalues not converged
     c_bands:  2 eigenvalues not converged
     c_bands:  1 eigenvalues not converged
     c_bands:  2 eigenvalues not converged
     c_bands:  1 eigenvalues not converged
     c_bands:  2 eigenvalues not converged
     c_bands:  1 eigenvalues not converged
     c_bands:  1 eigenvalues not converged
     c_bands:  1 eigenvalues not converged
     c_bands:  1 eigenvalues not converged
     c_bands:  1 eigenvalues not converged
     c_bands:  1 eigenvalues not converged
     ethr =  1.16E-05,  avg # of iterations = 17.6

     total cpu time spent up to now is      574.5 secs

     total energy              =   -4240.95040992 Ry
     estimated scf accuracy    <       0.05884358 Ry

     iteration #  5     ecut=    80.00 Ry     beta= 0.70
     Davidson diagonalization with overlap
     ethr =  1.16E-05,  avg # of iterations =  7.2

     total cpu time spent up to now is      666.8 secs

     total energy              =   -4240.95229066 Ry
     estimated scf accuracy    <       0.01090784 Ry

     iteration #  6     ecut=    80.00 Ry     beta= 0.70
     Davidson diagonalization with overlap
     ethr =  1.16E-05,  avg # of iterations =  3.4

     total cpu time spent up to now is      742.7 secs

     total energy              =   -4240.95314099 Ry
     estimated scf accuracy    <       0.00130073 Ry

     iteration #  7     ecut=    80.00 Ry     beta= 0.70
     Davidson diagonalization with overlap
     c_bands:  1 eigenvalues not converged
     c_bands:  1 eigenvalues not converged
     ethr =  1.55E-06,  avg # of iterations = 11.8

     total cpu time spent up to now is      865.7 secs

     total energy              =   -4240.95379705 Ry
     estimated scf accuracy    <       0.00147652 Ry

     iteration #  8     ecut=    80.00 Ry     beta= 0.70
     Davidson diagonalization with overlap
     ethr =  1.55E-06,  avg # of iterations =  2.2

     total cpu time spent up to now is      935.3 secs

     total energy              =   -4240.95383771 Ry
     estimated scf accuracy    <       0.00021876 Ry

     iteration #  9     ecut=    80.00 Ry     beta= 0.70
     Davidson diagonalization with overlap
     ethr =  2.60E-07,  avg # of iterations =  6.3

     total cpu time spent up to now is     1025.7 secs

     total energy              =   -4240.95391006 Ry
     estimated scf accuracy    <       0.00003057 Ry

     iteration # 10     ecut=    80.00 Ry     beta= 0.70
     Davidson diagonalization with overlap
     ethr =  3.64E-08,  avg # of iterations =  2.9

     total cpu time spent up to now is     1098.0 secs

     total energy              =   -4240.95391206 Ry
     estimated scf accuracy    <       0.00000591 Ry

     iteration # 11     ecut=    80.00 Ry     beta= 0.70
     Davidson diagonalization with overlap
     ethr =  7.03E-09,  avg # of iterations =  6.2

     total cpu time spent up to now is     1189.8 secs

     total energy              =   -4240.95391456 Ry
     estimated scf accuracy    <       0.00000110 Ry

     iteration # 12     ecut=    80.00 Ry     beta= 0.70
     Davidson diagonalization with overlap
     ethr =  1.30E-09,  avg # of iterations =  3.4

     total cpu time spent up to now is     1262.8 secs

     total energy              =   -4240.95391468 Ry
     estimated scf accuracy    <       0.00000010 Ry

     iteration # 13     ecut=    80.00 Ry     beta= 0.70
     Davidson diagonalization with overlap
     ethr =  1.20E-10,  avg # of iterations =  8.1

     total cpu time spent up to now is     1369.6 secs

     total energy              =   -4240.95391475 Ry
     estimated scf accuracy    <       0.00000006 Ry

     iteration # 14     ecut=    80.00 Ry     beta= 0.70
     Davidson diagonalization with overlap
     ethr =  7.31E-11,  avg # of iterations =  1.7

     total cpu time spent up to now is     1437.8 secs

     total energy              =   -4240.95391474 Ry
     estimated scf accuracy    <       0.00000002 Ry

     iteration # 15     ecut=    80.00 Ry     beta= 0.70
     Davidson diagonalization with overlap
     ethr =  2.60E-11,  avg # of iterations =  6.0

     total cpu time spent up to now is     1524.0 secs

     total energy              =   -4240.95391475 Ry
     estimated scf accuracy    <          2.2E-09 Ry

     iteration # 16     ecut=    80.00 Ry     beta= 0.70
     Davidson diagonalization with overlap
     ethr =  2.56E-12,  avg # of iterations =  4.2

     total cpu time spent up to now is     1599.5 secs

     total energy              =   -4240.95391475 Ry
     estimated scf accuracy    <          6.8E-10 Ry

     iteration # 17     ecut=    80.00 Ry     beta= 0.70
     Davidson diagonalization with overlap
     ethr =  8.13E-13,  avg # of iterations =  5.5

     total cpu time spent up to now is     1683.1 secs

     End of self-consistent calculation

          k = 0.0000 0.0000 0.0000 ( 36359 PWs)   bands (ev):

   -44.1348 -44.1348 -22.2595 -22.2595 -22.1668 -22.1668 -22.0657 -22.0656
    -7.8970  -7.5546  -7.1294  -6.8752  -6.2833  -5.4119  -4.9054  -4.8335
    -4.7827  -3.8284   0.3279   0.7515   0.7774   1.1248   1.4348   1.5322
     2.2286   2.3236   2.4961   2.7478   2.9386   3.0092   3.2663   3.3915
     3.7151   3.8137   3.9864   4.0720   4.2607   4.3381   4.3689   4.6821
     4.8269   5.4765   5.6378   5.8471   5.8588   5.9362   6.1250   6.8229
     6.9976   7.2720

          k = 0.0000 0.0000 0.1485 ( 36415 PWs)   bands (ev):

   -44.1348 -44.1348 -22.2595 -22.2595 -22.1668 -22.1668 -22.0657 -22.0656
    -7.8634  -7.6361  -7.0558  -6.8932  -6.2083  -5.6567  -4.8319  -4.7911
    -4.6324  -3.9434   0.3958   0.8118   0.9018   0.9997   1.0828   1.9055
     2.0541   2.2548   2.4312   2.8018   2.9236   3.1103   3.3986   3.4035
     3.7146   3.8748   3.9660   4.0755   4.1969   4.3600   4.3857   4.6829
     4.7622   4.9765   5.8155   5.9380   5.9397   6.0455   6.4828   6.6329
     6.8179   7.1849

          k = 0.0000 0.0000-0.2971 ( 36410 PWs)   bands (ev):

   -44.1348 -44.1348 -22.2595 -22.2595 -22.1668 -22.1668 -22.0656 -22.0656
    -7.7683  -7.7683  -6.9525  -6.9525  -5.9851  -5.9851  -4.8112  -4.8112
    -4.2443  -4.2443   0.6138   0.6138   0.9320   0.9320   1.3548   1.3548
     2.3286   2.3286   2.6302   2.6302   2.8771   2.8771   3.5137   3.5137
     3.8988   3.8988   4.0323   4.0323   4.3461   4.3461   4.3921   4.3921
     4.6984   4.6984   5.9261   5.9261   6.2239   6.2239   6.4346   6.4346
     6.9623   6.9623

          k = 0.2541 0.0645 0.0000 ( 36396 PWs)   bands (ev):

   -44.1344 -44.1344 -22.2576 -22.2576 -22.1765 -22.1765 -22.0645 -22.0644
    -7.7780  -7.4404  -7.0595  -6.8273  -6.2218  -5.3663  -4.9258  -4.7902
    -4.7386  -3.9845   0.4134   0.8760   0.9057   1.2322   1.2410   1.4236
     1.7516   1.8419   1.9583   2.5703   2.5953   3.1779   3.2965   3.7253
     3.7523   3.7581   3.8208   3.8331   4.0322   4.2479   4.2982   4.3154
     4.4918   4.5709   5.8321   5.9784   6.2109   6.5817   6.5942   6.7306
     7.0158   7.1827

          k = 0.2541 0.0645 0.1485 ( 36423 PWs)   bands (ev):

   -44.1344 -44.1344 -22.2576 -22.2576 -22.1765 -22.1765 -22.0645 -22.0644
    -7.7451  -7.5215  -6.9907  -6.8436  -6.1451  -5.6033  -4.8048  -4.7489
    -4.6569  -4.0760   0.4694   0.9264   0.9377   0.9587   1.1905   1.4088
     1.7659   2.0367   2.2212   2.5564   2.5798   2.9521   3.3501   3.3621
     3.5565   3.7822   3.9358   3.9593   4.0336   4.1606   4.3377   4.3508
     4.6842   4.8366   5.8484   5.9412   6.1646   6.2600   6.4049   6.7476
     7.2209   7.2930

          k = 0.2541 0.0645-0.2971 ( 36436 PWs)   bands (ev):

   -44.1344 -44.1344 -22.2576 -22.2576 -22.1765 -22.1765 -22.0645 -22.0645
    -7.6516  -7.6516  -6.8969  -6.8969  -5.9226  -5.9226  -4.7739  -4.7739
    -4.3247  -4.3247   0.6464   0.6464   1.0309   1.0309   1.1586   1.1586
     2.0757   2.0757   2.4772   2.4772   2.6678   2.6678   3.2005   3.2005
     3.6376   3.6376   3.9494   3.9494   4.1166   4.1166   4.3593   4.3593
     5.0168   5.0168   5.7832   5.7832   6.1441   6.1441   6.4470   6.4470
     7.4015   7.4015

          k = 0.5081 0.1290 0.0000 ( 36499 PWs)   bands (ev):

   -44.1335 -44.1335 -22.2529 -22.2529 -22.1999 -22.1999 -22.0618 -22.0617
    -7.4360  -7.1077  -6.8940  -6.7030  -6.0350  -5.2613  -5.0507  -4.6780
    -4.6299  -4.4492   0.3635   0.5967   0.6385   1.1957   1.2278   1.3828
     1.6463   1.6978   1.9444   2.1031   2.1633   2.2668   2.4452   3.3853
     3.4743   3.5092   3.5517   3.5887   3.7726   3.8688   3.9363   4.1832
     4.4004   5.0343   5.6150   6.0676   6.1264   6.5917   6.6115   6.9623
     7.4497   7.5637

          k = 0.5081 0.1290 0.1485 ( 36476 PWs)   bands (ev):

   -44.1335 -44.1335 -22.2529 -22.2529 -22.1999 -22.1999 -22.0617 -22.0617
    -7.4051  -7.1928  -6.8307  -6.7158  -5.9585  -5.4744  -4.8854  -4.6600
    -4.6435  -4.4762   0.3785   0.6160   0.7567   0.9907   1.2517   1.3499
     1.4259   1.5635   2.0166   2.0957   2.3521   2.4537   2.8100   3.4050
     3.4232   3.4730   3.5227   3.5978   3.7180   3.7531   3.8506   4.2344
     4.3122   4.4997   6.1538   6.1910   6.3375   6.5930   6.6558   6.8276
     7.2895   7.5126

          k = 0.5081 0.1290-0.2971 ( 36466 PWs)   bands (ev):

   -44.1335 -44.1335 -22.2529 -22.2529 -22.1999 -22.1999 -22.0617 -22.0617
    -7.3174  -7.3174  -6.7568  -6.7568  -5.7515  -5.7515  -4.7382  -4.7382
    -4.5560  -4.5560   0.4906   0.4906   1.0185   1.0185   1.0797   1.0797
     1.4250   1.4250   2.0574   2.0574   2.7004   2.7004   3.1656   3.1656
     3.4010   3.4010   3.5570   3.5570   3.7177   3.7177   3.8421   3.8421
     4.3148   4.3148   6.3956   6.3956   6.5616   6.5616   6.8411   6.8411
     7.1528   7.1528

          k = 0.7622 0.1934 0.0000 ( 36521 PWs)   bands (ev):

   -44.1326 -44.1326 -22.2481 -22.2481 -22.2231 -22.2231 -22.0590 -22.0589
    -6.9574  -6.7416  -6.5919  -6.5089  -5.7680  -5.4038  -5.2046  -5.1154
    -4.5534  -4.5169   0.0034   0.0162   0.4724   0.9964   1.0183   1.2738
     1.4831   1.6031   1.9757   2.0993   2.2426   2.3394   2.4210   2.7928
     2.9038   3.2652   3.3428   3.4593   3.5773   3.6729   3.7151   3.8057
     3.8274   4.5656   5.9391   6.3444   6.4028   6.8558   6.8702   6.9535
     7.3196   7.6242

          k = 0.7622 0.1934 0.1485 ( 36503 PWs)   bands (ev):

   -44.1326 -44.1326 -22.2481 -22.2481 -22.2231 -22.2231 -22.0589 -22.0589
    -6.9341  -6.7883  -6.5697  -6.5167  -5.7135  -5.4583  -5.1905  -5.1280
    -4.5449  -4.5197  -0.0035   0.1943   0.3501   0.8899   0.9968   1.2326
     1.4954   1.6212   1.9212   2.0564   2.1275   2.6176   2.6899   2.8586
     2.8932   3.0788   3.2712   3.3885   3.5260   3.6224   3.6637   3.9329
     3.9750   4.5156   5.7220   6.3603   6.6645   6.7688   6.9379   6.9881
     7.0972   7.5962

          k = 0.7622 0.1934-0.2971 ( 36522 PWs)   bands (ev):

   -44.1326 -44.1326 -22.2481 -22.2481 -22.2231 -22.2231 -22.0589 -22.0589
    -6.8704  -6.8704  -6.5384  -6.5384  -5.5857  -5.5857  -5.1587  -5.1587
    -4.5296  -4.5296   0.1316   0.1316   0.5344   0.5344   1.0828   1.0828
     1.5654   1.5654   2.0138   2.0138   2.3849   2.3849   2.8225   2.8225
     2.9863   2.9863   3.3147   3.3147   3.5964   3.5964   3.8966   3.8966
     4.0834   4.0834   6.1773   6.1773   6.4600   6.4600   6.9934   6.9934
     7.4495   7.4495

          k =-1.0162-0.2579 0.0000 ( 36506 PWs)   bands (ev):

   -44.1323 -44.1323 -22.2460 -22.2460 -22.2329 -22.2329 -22.0578 -22.0578
    -6.7192  -6.6990  -6.0259  -6.0148  -5.9771  -5.9703  -5.3131  -5.3125
    -4.4961  -4.4701  -0.0349  -0.0128   0.2842   0.3058   1.0117   1.0208
     1.4679   1.6683   2.2317   2.3916   2.4026   2.4178   2.8058   2.8093
     2.8158   2.8343   3.2075   3.2586   3.3196   3.4046   3.4848   3.6960
     3.8070   4.0990   6.5837   6.5848   6.6061   6.6616   7.0405   7.1377
     7.1432   7.1738

          k =-1.0162-0.2579 0.1485 ( 36506 PWs)   bands (ev):

   -44.1323 -44.1323 -22.2460 -22.2460 -22.2329 -22.2329 -22.0578 -22.0578
    -6.7152  -6.7009  -6.0483  -6.0404  -5.9533  -5.9484  -5.3103  -5.3099
    -4.4955  -4.4771  -0.1322  -0.1254   0.5006   0.5078   1.0089   1.0247
     1.4635   1.5947   2.0025   2.1068   2.3713   2.3980   2.6943   2.6975
     2.9382   3.0381   3.0952   3.1937   3.5553   3.5714   3.6396   3.7522
     4.0293   4.1547   6.0568   6.0742   6.5011   6.5772   7.1260   7.1465
     7.3431   7.3970

          k =-1.0162-0.2579-0.2971 ( 36528 PWs)   bands (ev):

   -44.1323 -44.1323 -22.2460 -22.2460 -22.2329 -22.2329 -22.0578 -22.0578
    -6.7070  -6.7070  -6.0600  -6.0600  -5.9363  -5.9363  -5.3074  -5.3074
    -4.4896  -4.4896  -0.1920  -0.1920   0.7424   0.7424   0.9563   0.9563
     1.5233   1.5233   1.7862   1.7862   2.3714   2.3714   2.7678   2.7678
     2.8916   2.8916   3.1665   3.1665   3.6351   3.6351   3.8051   3.8051
     4.3567   4.3567   5.6256   5.6256   6.4526   6.4526   7.1571   7.1571
     7.4533   7.4533

          k = 0.5081 0.0000 0.0000 ( 36503 PWs)   bands (ev):

   -44.1335 -44.1335 -22.2529 -22.2529 -22.1999 -22.1999 -22.0618 -22.0617
    -7.4397  -7.1083  -6.8948  -6.6993  -6.0315  -5.2613  -5.0479  -4.6723
    -4.6368  -4.4487   0.3689   0.6045   0.6249   1.1910   1.2209   1.3511
     1.6444   1.6944   1.9306   2.1091   2.1703   2.2411   2.4449   3.3762
     3.4970   3.5157   3.5767   3.5772   3.7799   3.9206   3.9237   4.2205
     4.4024   5.0297   5.6208   6.0447   6.1623   6.5535   6.5599   6.9982
     7.4632   7.5797

          k = 0.5081 0.0000 0.1485 ( 36453 PWs)   bands (ev):

   -44.1335 -44.1335 -22.2529 -22.2529 -22.1999 -22.1999 -22.0617 -22.0617
    -7.4086  -7.1948  -6.8295  -6.7122  -5.9559  -5.4742  -4.8811  -4.6615
    -4.6431  -4.4773   0.3810   0.6106   0.7575   0.9942   1.2513   1.3402
     1.3949   1.5423   2.0141   2.1058   2.3860   2.3968   2.8067   3.4000
     3.4669   3.4858   3.4880   3.6071   3.7097   3.8244   3.8370   4.2759
     4.3227   4.4912   6.1463   6.2007   6.3562   6.5453   6.6187   6.8598
     7.3092   7.5220

          k = 0.5081 0.0000-0.2971 ( 36452 PWs)   bands (ev):

   -44.1335 -44.1335 -22.2529 -22.2529 -22.1999 -22.1999 -22.0617 -22.0617
    -7.3205  -7.3205  -6.7538  -6.7538  -5.7505  -5.7505  -4.7343  -4.7343
    -4.5588  -4.5588   0.4884   0.4884   1.0196   1.0196   1.0879   1.0879
     1.3875   1.3875   2.0600   2.0600   2.6912   2.6912   3.1575   3.1575
     3.4049   3.4049   3.5709   3.5709   3.7461   3.7461   3.8400   3.8400
     4.3349   4.3349   6.4112   6.4112   6.5255   6.5255   6.8588   6.8588
     7.1538   7.1538

          k = 0.7622 0.0645 0.0000 ( 36505 PWs)   bands (ev):

   -44.1326 -44.1326 -22.2481 -22.2481 -22.2231 -22.2231 -22.0590 -22.0589
    -6.9656  -6.7393  -6.5933  -6.5016  -5.7680  -5.4008  -5.2052  -5.1146
    -4.5437  -4.5275   0.0124   0.0134   0.4866   1.0069   1.0280   1.2877
     1.4467   1.5654   1.9446   2.1188   2.2614   2.3200   2.3582   2.7678
     2.8924   3.3134   3.3619   3.5001   3.5846   3.6365   3.7015   3.8286
     3.8427   4.5977   5.9365   6.3325   6.4026   6.8422   6.9124   6.9132
     7.3346   7.6426

          k = 0.7622 0.0645 0.1485 ( 36509 PWs)   bands (ev):

   -44.1326 -44.1326 -22.2481 -22.2481 -22.2231 -22.2231 -22.0589 -22.0589
    -6.9418  -6.7903  -6.5666  -6.5094  -5.7139  -5.4572  -5.1896  -5.1271
    -4.5382  -4.5272   0.0029   0.1932   0.3592   0.8839   1.0201   1.2475
     1.4631   1.6204   1.9516   1.9906   2.0551   2.6302   2.6796   2.8487
     2.8733   3.0824   3.3235   3.3951   3.5514   3.6104   3.6535   3.9622
     3.9930   4.5119   5.7470   6.3389   6.6769   6.7695   6.9421   6.9966
     7.0707   7.6158

          k = 0.7622 0.0645-0.2971 ( 36472 PWs)   bands (ev):

   -44.1326 -44.1326 -22.2481 -22.2481 -22.2231 -22.2231 -22.0589 -22.0589
    -6.8762  -6.8762  -6.5318  -6.5318  -5.5862  -5.5862  -5.1574  -5.1574
    -4.5298  -4.5298   0.1394   0.1394   0.5273   0.5273   1.1050   1.1050
     1.5592   1.5592   1.9627   1.9627   2.3649   2.3649   2.8249   2.8249
     2.9711   2.9711   3.3725   3.3725   3.5936   3.5936   3.8837   3.8837
     4.1000   4.1000   6.2031   6.2031   6.4604   6.4604   6.9614   6.9614
     7.4771   7.4771

          k = 1.0162 0.1290 0.0000 ( 36514 PWs)   bands (ev):

   -44.1323 -44.1323 -22.2460 -22.2460 -22.2329 -22.2329 -22.0578 -22.0578
    -6.7192  -6.6990  -6.0257  -6.0150  -5.9771  -5.9702  -5.3131  -5.3125
    -4.4961  -4.4701  -0.0407  -0.0069   0.2804   0.3098   1.0050   1.0285
     1.4740   1.6589   2.2302   2.3932   2.3981   2.4168   2.7999   2.8024
     2.8103   2.8702   3.2257   3.2409   3.2994   3.3924   3.5287   3.6755
     3.7923   4.1131   6.5720   6.5796   6.6182   6.6686   7.0603   7.1387
     7.1452   7.1596

          k = 1.0162 0.1290 0.1485 ( 36524 PWs)   bands (ev):

   -44.1323 -44.1323 -22.2460 -22.2460 -22.2329 -22.2329 -22.0578 -22.0578
    -6.7153  -6.7009  -6.0482  -6.0405  -5.9532  -5.9485  -5.3103  -5.3099
    -4.4955  -4.4771  -0.1344  -0.1235   0.5019   0.5071   1.0104   1.0235
     1.4690   1.5892   2.0145   2.0900   2.3716   2.3935   2.6554   2.7430
     2.9489   3.0497   3.0872   3.1842   3.5268   3.6050   3.6422   3.7441
     4.0084   4.1741   6.0498   6.0849   6.4979   6.5798   7.1310   7.1457
     7.3512   7.3897

          k = 1.0162 0.1290-0.2971 ( 36516 PWs)   bands (ev):

   -44.1323 -44.1323 -22.2460 -22.2460 -22.2329 -22.2329 -22.0578 -22.0578
    -6.7070  -6.7070  -6.0600  -6.0600  -5.9363  -5.9363  -5.3074  -5.3074
    -4.4896  -4.4896  -0.1922  -0.1922   0.7429   0.7429   0.9562   0.9562
     1.5243   1.5243   1.7870   1.7870   2.3629   2.3629   2.7516   2.7516
     2.9325   2.9325   3.1476   3.1476   3.6380   3.6380   3.8022   3.8022
     4.3572   4.3572   5.6280   5.6280   6.4520   6.4520   7.1586   7.1586
     7.4542   7.4542

          k =-0.7622-0.3224 0.0000 ( 36511 PWs)   bands (ev):

   -44.1326 -44.1326 -22.2481 -22.2481 -22.2231 -22.2231 -22.0590 -22.0589
    -6.9449  -6.7459  -6.5899  -6.5191  -5.7681  -5.4080  -5.2037  -5.1165
    -4.5610  -4.5081  -0.0103   0.0217   0.4524   0.9637   1.0343   1.2566
     1.5039   1.6666   2.0393   2.0754   2.2548   2.3650   2.4502   2.8291
     2.9162   3.2103   3.3274   3.4556   3.5570   3.6432   3.6681   3.7871
     3.8888   4.5112   5.9427   6.3389   6.4370   6.7736   6.9133   7.0196
     7.2885   7.6000

          k =-0.7622-0.3224 0.1485 ( 36492 PWs)   bands (ev):

   -44.1326 -44.1326 -22.2481 -22.2481 -22.2231 -22.2231 -22.0589 -22.0589
    -6.9224  -6.7860  -6.5743  -6.5272  -5.7129  -5.4598  -5.1915  -5.1293
    -4.5501  -4.5135  -0.0128   0.1970   0.3367   0.8923   0.9784   1.2124
     1.5298   1.6267   1.9037   2.1574   2.2070   2.6053   2.6859   2.8766
     2.9101   3.0963   3.2114   3.3714   3.4751   3.6015   3.7113   3.8805
     3.9616   4.5192   5.6886   6.3947   6.6368   6.7658   6.9065   7.0326
     7.1254   7.5568

          k =-0.7622-0.3224-0.2971 ( 36508 PWs)   bands (ev):

   -44.1326 -44.1326 -22.2481 -22.2481 -22.2231 -22.2231 -22.0589 -22.0589
    -6.8617  -6.8617  -6.5481  -6.5481  -5.5849  -5.5849  -5.1606  -5.1606
    -4.5292  -4.5292   0.1208   0.1208   0.5438   0.5438   1.0566   1.0566
     1.5738   1.5738   2.0719   2.0719   2.4316   2.4316   2.8201   2.8201
     3.0088   3.0088   3.2327   3.2327   3.5945   3.5945   3.8952   3.8952
     4.0760   4.0760   6.1439   6.1439   6.4581   6.4581   7.0458   7.0458
     7.4021   7.4021

          k =-0.5081-0.2579 0.0000 ( 36480 PWs)   bands (ev):

   -44.1335 -44.1335 -22.2529 -22.2529 -22.1999 -22.1999 -22.0618 -22.0617
    -7.4268  -7.1061  -6.8925  -6.7114  -6.0435  -5.2612  -5.0575  -4.6866
    -4.6184  -4.4503   0.3507   0.5950   0.6501   1.2065   1.2564   1.4585
     1.6488   1.7153   1.9794   2.0879   2.1565   2.3111   2.4436   3.3928
     3.4058   3.4768   3.5519   3.5931   3.7512   3.7631   3.9580   4.1048
     4.3914   5.0436   5.6032   6.0334   6.1316   6.6896   6.7332   6.8770
     7.4054   7.5280

          k =-0.5081-0.2579 0.1485 ( 36485 PWs)   bands (ev):

   -44.1335 -44.1335 -22.2529 -22.2529 -22.1999 -22.1999 -22.0617 -22.0617
    -7.3963  -7.1878  -6.8340  -6.7243  -5.9646  -5.4749  -4.8956  -4.6565
    -4.6445  -4.4734   0.3726   0.6285   0.7532   0.9826   1.2619   1.3645
     1.5074   1.6239   2.0140   2.0783   2.3367   2.5179   2.8174   3.3304
     3.4243   3.4668   3.5490   3.5803   3.6155   3.7412   3.8548   4.1526
     4.2746   4.5151   6.1423   6.1916   6.2986   6.6947   6.7527   6.7633
     7.2350   7.4926

          k =-0.5081-0.2579-0.2971 ( 36478 PWs)   bands (ev):

   -44.1335 -44.1335 -22.2529 -22.2529 -22.1999 -22.1999 -22.0617 -22.0617
    -7.3098  -7.3098  -6.7644  -6.7644  -5.7539  -5.7539  -4.7472  -4.7472
    -4.5496  -4.5496   0.4958   0.4958   1.0148   1.0148   1.0658   1.0658
     1.5192   1.5192   2.0470   2.0470   2.7273   2.7273   3.1733   3.1733
     3.3845   3.3845   3.5014   3.5014   3.6887   3.6887   3.8433   3.8433
     4.2669   4.2669   6.3595   6.3595   6.6385   6.6385   6.8028   6.8028
     7.1578   7.1578

          k =-0.2541-0.1934 0.0000 ( 36410 PWs)   bands (ev):

   -44.1344 -44.1344 -22.2576 -22.2576 -22.1765 -22.1765 -22.0645 -22.0644
    -7.7717  -7.4393  -7.0540  -6.8332  -6.2346  -5.3682  -4.9343  -4.7976
    -4.7266  -3.9854   0.4387   0.8829   0.9748   1.2282   1.2695   1.4581
     1.7759   1.8661   1.9598   2.5378   2.5855   3.2404   3.2690   3.6643
     3.6967   3.7288   3.7883   3.8632   3.8928   4.1953   4.2745   4.2961
     4.3826   4.6004   5.8876   6.0086   6.2780   6.5813   6.6369   6.7500
     6.9964   7.1019

          k =-0.2541-0.1934 0.1485 ( 36427 PWs)   bands (ev):

   -44.1344 -44.1344 -22.2576 -22.2576 -22.1765 -22.1765 -22.0645 -22.0644
    -7.7390  -7.5182  -6.9893  -6.8491  -6.1553  -5.6057  -4.8228  -4.7420
    -4.6508  -4.0761   0.4930   0.9276   0.9546   1.0376   1.2243   1.4235
     1.7731   2.0398   2.2502   2.5350   2.5669   2.9373   3.3716   3.4029
     3.5664   3.6803   3.7980   3.9004   3.9870   4.1363   4.2939   4.3029
     4.6757   4.8359   5.8386   5.9648   6.1598   6.3301   6.4727   6.7487
     7.1810   7.2822

          k =-0.2541-0.1934-0.2971 ( 36422 PWs)   bands (ev):

   -44.1344 -44.1344 -22.2576 -22.2576 -22.1765 -22.1765 -22.0645 -22.0645
    -7.6464  -7.6464  -6.9005  -6.9005  -5.9280  -5.9280  -4.7784  -4.7784
    -4.3225  -4.3225   0.6654   0.6654   1.0865   1.0865   1.1705   1.1705
     2.0785   2.0785   2.4723   2.4723   2.6673   2.6673   3.2172   3.2172
     3.6220   3.6220   3.8241   3.8241   4.0956   4.0956   4.3062   4.3062
     5.0281   5.0281   5.7471   5.7471   6.1608   6.1608   6.5165   6.5165
     7.3849   7.3850

          k = 0.0000-0.1290 0.0000 ( 36417 PWs)   bands (ev):

   -44.1348 -44.1348 -22.2595 -22.2595 -22.1668 -22.1668 -22.0657 -22.0656
    -7.8937  -7.5540  -7.1256  -6.8783  -6.2914  -5.4136  -4.9109  -4.8391
    -4.7739  -3.8290   0.3464   0.7558   0.8184   1.1344   1.4460   1.5608
     2.2293   2.3234   2.4953   2.7548   2.9397   3.0136   3.3044   3.3829
     3.6668   3.8026   3.8659   4.0128   4.2608   4.2838   4.3210   4.6816
     4.8157   5.4443   5.6603   5.8664   5.8680   5.9853   6.1733   6.8214
     6.9977   7.2344

          k = 0.0000-0.1290 0.1485 ( 36419 PWs)   bands (ev):

   -44.1348 -44.1348 -22.2595 -22.2595 -22.1668 -22.1668 -22.0657 -22.0656
    -7.8602  -7.6344  -7.0543  -6.8960  -6.2149  -5.6586  -4.8421  -4.7862
    -4.6298  -3.9435   0.4136   0.8537   0.9108   1.0046   1.1031   1.9109
     2.0713   2.2555   2.4314   2.8071   2.9253   3.1178   3.3727   3.4305
     3.7055   3.8539   3.8646   3.9936   4.1941   4.3069   4.3403   4.6822
     4.7553   4.9682   5.8279   5.9565   5.9844   6.0508   6.5024   6.6313
     6.8188   7.1648

          k = 0.0000-0.1290-0.2971 ( 36464 PWs)   bands (ev):

   -44.1348 -44.1348 -22.2595 -22.2595 -22.1668 -22.1668 -22.0656 -22.0656
    -7.7655  -7.7655  -6.9539  -6.9539  -5.9889  -5.9889  -4.8134  -4.8134
    -4.2435  -4.2435   0.6339   0.6339   0.9560   0.9560   1.3615   1.3615
     2.3293   2.3293   2.6416   2.6416   2.8804   2.8804   3.5043   3.5043
     3.8411   3.8411   4.0248   4.0248   4.2513   4.2513   4.4051   4.4051
     4.6963   4.6963   5.9429   5.9429   6.2393   6.2393   6.4373   6.4373
     6.9591   6.9591

          k = 1.0162 0.0000 0.0000 ( 36499 PWs)   bands (ev):

   -44.1323 -44.1323 -22.2460 -22.2460 -22.2329 -22.2329 -22.0578 -22.0578
    -6.7192  -6.6990  -6.0254  -6.0152  -5.9772  -5.9702  -5.3131  -5.3125
    -4.4961  -4.4701  -0.0450  -0.0026   0.2774   0.3129   1.0014   1.0333
     1.4810   1.6486   2.2286   2.3943   2.3950   2.4155   2.7962   2.7992
     2.8090   2.8951   3.2460   3.2484   3.2604   3.3754   3.5907   3.6332
     3.7791   4.1260   6.5647   6.5751   6.6260   6.6751   7.0910   7.1344
     7.1397   7.1473

          k = 1.0162 0.0000 0.1485 ( 36485 PWs)   bands (ev):

   -44.1323 -44.1323 -22.2460 -22.2460 -22.2329 -22.2329 -22.0578 -22.0578
    -6.7153  -6.7009  -6.0481  -6.0406  -5.9532  -5.9485  -5.3104  -5.3099
    -4.4955  -4.4771  -0.1360  -0.1221   0.5047   0.5049   1.0126   1.0216
     1.4751   1.5831   2.0368   2.0628   2.3771   2.3838   2.6422   2.7605
     2.9663   3.0668   3.0705   3.1734   3.5143   3.6134   3.6579   3.7320
     3.9914   4.1896   6.0459   6.0925   6.4949   6.5823   7.1379   7.1430
     7.3682   7.3736

          k = 1.0162 0.0000-0.2971 ( 36514 PWs)   bands (ev):

   -44.1323 -44.1323 -22.2460 -22.2460 -22.2329 -22.2329 -22.0578 -22.0578
    -6.7070  -6.7070  -6.0600  -6.0600  -5.9363  -5.9363  -5.3074  -5.3074
    -4.4895  -4.4895  -0.1923  -0.1923   0.7433   0.7433   0.9561   0.9561
     1.5254   1.5254   1.7878   1.7878   2.3545   2.3545   2.7404   2.7404
     2.9747   2.9747   3.1221   3.1221   3.6410   3.6410   3.7993   3.7993
     4.3577   4.3577   5.6305   5.6305   6.4514   6.4514   7.1600   7.1600
     7.4550   7.4550

          k = 1.2703 0.0645 0.0000 ( 36468 PWs)   bands (ev):

   -44.1326 -44.1326 -22.2481 -22.2481 -22.2231 -22.2231 -22.0590 -22.0589
    -6.9352  -6.7499  -6.5885  -6.5263  -5.7682  -5.4110  -5.2030  -5.1173
    -4.5649  -4.5032  -0.0198   0.0257   0.4385   0.9460   1.0455   1.2453
     1.5078   1.7131   2.0601   2.1038   2.2781   2.3826   2.4325   2.8569
     2.9205   3.1666   3.3560   3.4964   3.5126   3.5787   3.6461   3.7373
     3.9736   4.4615   5.9454   6.3339   6.4713   6.7142   6.9467   7.0795
     7.2524   7.5956

          k = 1.2703 0.0645 0.1485 ( 36490 PWs)   bands (ev):

   -44.1326 -44.1326 -22.2481 -22.2481 -22.2231 -22.2231 -22.0589 -22.0589
    -6.9134  -6.7849  -6.5776  -6.5348  -5.7125  -5.4609  -5.1923  -5.1303
    -4.5528  -4.5101  -0.0196   0.1998   0.3266   0.8885   0.9750   1.1992
     1.5467   1.6347   1.8978   2.2302   2.2679   2.5950   2.6694   2.8860
     2.9233   3.1246   3.1728   3.3487   3.4599   3.5538   3.7605   3.8264
     3.9618   4.5204   5.6667   6.4241   6.6073   6.7631   6.8895   7.0827
     7.1375   7.5201

          k = 1.2703 0.0645-0.2971 ( 36480 PWs)   bands (ev):

   -44.1326 -44.1326 -22.2481 -22.2481 -22.2231 -22.2231 -22.0589 -22.0589
    -6.8551  -6.8551  -6.5554  -6.5554  -5.5844  -5.5844  -5.1620  -5.1620
    -4.5290  -4.5290   0.1134   0.1134   0.5502   0.5502   1.0410   1.0410
     1.5799   1.5799   2.1012   2.1012   2.4824   2.4824   2.8209   2.8209
     3.0252   3.0252   3.1684   3.1684   3.5904   3.5904   3.8792   3.8792
     4.0836   4.0836   6.1222   6.1222   6.4561   6.4561   7.0907   7.0907
     7.3597   7.3598

          k =-0.5081-0.3869 0.0000 ( 36463 PWs)   bands (ev):

   -44.1335 -44.1335 -22.2529 -22.2529 -22.1999 -22.1999 -22.0618 -22.0617
    -7.4173  -7.1046  -6.8919  -6.7189  -6.0523  -5.2611  -5.0644  -4.6919
    -4.6101  -4.4515   0.3384   0.6053   0.6440   1.2169   1.2968   1.5484
     1.6531   1.7245   2.0171   2.0701   2.1827   2.3178   2.4379   3.2794
     3.4299   3.4749   3.4989   3.6467   3.6927   3.7361   3.8787   4.1015
     4.3790   5.0497   5.5937   5.9429   6.1982   6.7918   6.7993   6.8585
     7.3328   7.5099

          k =-0.5081-0.3869 0.1485 ( 36477 PWs)   bands (ev):

   -44.1335 -44.1335 -22.2529 -22.2529 -22.1999 -22.1999 -22.0617 -22.0617
    -7.3871  -7.1828  -6.8382  -6.7323  -5.9708  -5.4753  -4.9055  -4.6536
    -4.6453  -4.4707   0.3670   0.6407   0.7467   0.9751   1.2783   1.3764
     1.6048   1.6956   1.9997   2.0620   2.3424   2.5501   2.8258   3.2292
     3.4277   3.4601   3.5002   3.5663   3.6147   3.7319   3.8325   4.1148
     4.2178   4.5278   6.0928   6.2182   6.2750   6.6744   6.8012   6.8880
     7.1626   7.4872

          k =-0.5081-0.3869-0.2971 ( 36492 PWs)   bands (ev):

   -44.1335 -44.1335 -22.2529 -22.2529 -22.1999 -22.1999 -22.0617 -22.0617
    -7.3019  -7.3019  -6.7722  -6.7722  -5.7561  -5.7561  -4.7558  -4.7558
    -4.5437  -4.5437   0.5005   0.5005   1.0099   1.0099   1.0567   1.0567
     1.6288   1.6288   2.0242   2.0242   2.7640   2.7640   3.1373   3.1373
     3.3639   3.3639   3.4605   3.4605   3.6829   3.6829   3.8394   3.8394
     4.2222   4.2222   6.3253   6.3253   6.6785   6.6785   6.7904   6.7904
     7.1791   7.1791

          k =-0.2541-0.3224 0.0000 ( 36485 PWs)   bands (ev):

   -44.1344 -44.1344 -22.2576 -22.2576 -22.1765 -22.1765 -22.0645 -22.0644
    -7.7626  -7.4378  -7.0469  -6.8406  -6.2532  -5.3708  -4.9471  -4.8011
    -4.7159  -3.9868   0.4644   0.8942   1.0948   1.2201   1.3181   1.5295
     1.8124   1.9021   1.9612   2.4657   2.5420   3.2378   3.3455   3.4999
     3.6018   3.6595   3.7440   3.8185   3.9335   4.1436   4.1548   4.2622
     4.3281   4.6137   5.9753   6.0373   6.3404   6.5824   6.6991   6.7806
     6.9211   7.0305

          k =-0.2541-0.3224 0.1485 ( 36445 PWs)   bands (ev):

   -44.1344 -44.1344 -22.2576 -22.2576 -22.1765 -22.1765 -22.0645 -22.0644
    -7.7302  -7.5136  -6.9879  -6.8564  -6.1699  -5.6091  -4.8431  -4.7364
    -4.6431  -4.0761   0.5160   0.9364   0.9727   1.1666   1.2973   1.4474
     1.7910   2.0434   2.2943   2.4690   2.5296   2.9272   3.3904   3.4505
     3.4980   3.5442   3.6638   3.8931   3.9162   4.0853   4.2079   4.2640
     4.6981   4.8178   5.8280   5.9980   6.1578   6.3677   6.5698   6.7480
     7.1420   7.2645

          k =-0.2541-0.3224-0.2971 ( 36442 PWs)   bands (ev):

   -44.1344 -44.1344 -22.2576 -22.2576 -22.1765 -22.1765 -22.0645 -22.0645
    -7.6389  -7.6389  -6.9056  -6.9056  -5.9355  -5.9355  -4.7849  -4.7849
    -4.3195  -4.3195   0.6822   0.6822   1.1528   1.1528   1.2291   1.2291
     2.0850   2.0850   2.4466   2.4466   2.6631   2.6631   3.2420   3.2420
     3.4783   3.4783   3.7970   3.7970   4.0457   4.0457   4.2437   4.2437
     5.0446   5.0446   5.7075   5.7075   6.1518   6.1518   6.6105   6.6105
     7.3648   7.3648

          k = 0.0000-0.2579 0.0000 ( 36445 PWs)   bands (ev):

   -44.1348 -44.1348 -22.2595 -22.2595 -22.1668 -22.1668 -22.0657 -22.0656
    -7.8856  -7.5526  -7.1167  -6.8853  -6.3115  -5.4174  -4.9264  -4.8420
    -4.7609  -3.8303   0.3826   0.7666   0.9291   1.1833   1.4720   1.6233
     2.2309   2.3244   2.4933   2.7725   2.9422   3.0337   3.3156   3.4093
     3.4579   3.6479   3.7755   3.9574   4.1552   4.1862   4.2611   4.6805
     4.7887   5.3985   5.7162   5.8849   5.9217   6.0619   6.2607   6.7911
     6.9979   7.1659

          k = 0.0000-0.2579 0.1485 ( 36452 PWs)   bands (ev):

   -44.1348 -44.1348 -22.2595 -22.2595 -22.1668 -22.1668 -22.0657 -22.0656
    -7.8524  -7.6302  -7.0508  -6.9024  -6.2313  -5.6631  -4.8616  -4.7793
    -4.6241  -3.9437   0.4469   0.9254   0.9581   1.0534   1.1530   1.9257
     2.1120   2.2571   2.4318   2.8207   2.9293   3.1188   3.3122   3.4026
     3.6341   3.6602   3.8395   3.9110   4.1822   4.1870   4.2189   4.6806
     4.7388   4.9591   5.8650   6.0044   6.0419   6.0639   6.5367   6.6113
     6.8210   7.1199

          k = 0.0000-0.2579-0.2971 ( 36454 PWs)   bands (ev):

   -44.1348 -44.1348 -22.2595 -22.2595 -22.1668 -22.1668 -22.0656 -22.0656
    -7.7588  -7.7588  -6.9574  -6.9574  -5.9980  -5.9980  -4.8190  -4.8190
    -4.2414  -4.2414   0.6679   0.6679   1.0409   1.0409   1.3787   1.3787
     2.3308   2.3308   2.6670   2.6670   2.8885   2.8885   3.3849   3.3849
     3.7751   3.7751   4.0062   4.0062   4.1183   4.1183   4.3838   4.3838
     4.6914   4.6914   5.9609   5.9609   6.2735   6.2735   6.4439   6.4439
     6.9391   6.9391

          k = 1.5243 0.0000 0.0000 ( 36439 PWs)   bands (ev):

   -44.1335 -44.1335 -22.2529 -22.2529 -22.1999 -22.1999 -22.0618 -22.0617
    -7.4132  -7.1040  -6.8921  -6.7217  -6.0560  -5.2610  -5.0673  -4.6936
    -4.6072  -4.4519   0.3335   0.6209   0.6285   1.2211   1.3161   1.6013
     1.6814   1.6844   2.0337   2.0668   2.2316   2.2801   2.4340   3.2359
     3.4267   3.4433   3.5071   3.6997   3.7080   3.7257   3.7687   4.1209
     4.3733   5.0509   5.5903   5.9047   6.2286   6.7557   6.8515   6.9151
     7.2879   7.5447

          k = 1.5243 0.0000 0.1485 ( 36476 PWs)   bands (ev):

   -44.1335 -44.1335 -22.2529 -22.2529 -22.1999 -22.1999 -22.0617 -22.0617
    -7.3832  -7.1807  -6.8402  -6.7354  -5.9734  -5.4755  -4.9094  -4.6528
    -4.6454  -4.4696   0.3647   0.6461   0.7428   0.9722   1.2861   1.3810
     1.6625   1.7179   2.0012   2.0424   2.3537   2.5500   2.8298   3.1886
     3.3888   3.4652   3.4841   3.5871   3.6419   3.7217   3.7886   4.1542
     4.1560   4.5329   6.0671   6.2317   6.2692   6.6445   6.8422   6.9566
     7.1157   7.5017

          k = 1.5243 0.0000-0.2971 ( 36508 PWs)   bands (ev):

   -44.1335 -44.1335 -22.2529 -22.2529 -22.1999 -22.1999 -22.0617 -22.0617
    -7.2986  -7.2986  -6.7755  -6.7755  -5.7570  -5.7570  -4.7592  -4.7592
    -4.5414  -4.5414   0.5023   0.5023   1.0077   1.0077   1.0537   1.0537
     1.6842   1.6842   2.0065   2.0065   2.7849   2.7849   3.0991   3.0991
     3.3638   3.3638   3.4517   3.4517   3.6810   3.6810   3.8354   3.8354
     4.2056   4.2056   6.3115   6.3115   6.6758   6.6758   6.8000   6.8000
     7.1953   7.1953

          k =-0.2541-0.4514 0.0000 ( 36444 PWs)   bands (ev):

   -44.1344 -44.1344 -22.2576 -22.2576 -22.1765 -22.1765 -22.0645 -22.0644
    -7.7560  -7.4367  -7.0426  -6.8449  -6.2668  -5.3726  -4.9563  -4.8009
    -4.7106  -3.9877   0.4753   0.9035   1.2127   1.2151   1.3351   1.6144
     1.8395   1.9391   1.9593   2.3865   2.4684   3.2246   3.3574   3.4295
     3.4932   3.7011   3.7592   3.8085   3.8591   4.1047   4.1145   4.1994
     4.3210   4.6222   6.0485   6.0516   6.3685   6.5832   6.7432   6.8025
     6.8326   7.0071

          k =-0.2541-0.4514 0.1485 ( 36461 PWs)   bands (ev):

   -44.1344 -44.1344 -22.2576 -22.2576 -22.1765 -22.1765 -22.0645 -22.0644
    -7.7239  -7.5102  -6.9876  -6.8610  -6.1804  -5.6113  -4.8556  -4.7337
    -4.6384  -4.0761   0.5254   0.9488   0.9763   1.2944   1.3476   1.4765
     1.8164   2.0450   2.3393   2.3941   2.4519   2.9327   3.3251   3.3602
     3.4655   3.5569   3.7285   3.8480   3.8856   3.9642   4.1974   4.2332
     4.7391   4.7839   5.8222   6.0220   6.1646   6.3579   6.6370   6.7408
     7.1292   7.2499

          k =-0.2541-0.4514-0.2971 ( 36490 PWs)   bands (ev):

   -44.1344 -44.1344 -22.2576 -22.2576 -22.1765 -22.1765 -22.0645 -22.0645
    -7.6335  -7.6335  -6.9094  -6.9094  -5.9408  -5.9408  -4.7895  -4.7895
    -4.3174  -4.3174   0.6887   0.6887   1.1675   1.1675   1.3301   1.3301
     2.0938   2.0938   2.3969   2.3969   2.6620   2.6620   3.2419   3.2419
     3.3717   3.3717   3.8314   3.8314   3.9816   3.9816   4.2131   4.2131
     5.0569   5.0569   5.6835   5.6835   6.1354   6.1354   6.6678   6.6678
     7.3539   7.3540

          k = 0.0000-0.3869 0.0000 ( 36477 PWs)   bands (ev):

   -44.1348 -44.1348 -22.2595 -22.2595 -22.1668 -22.1668 -22.0657 -22.0656
    -7.8772  -7.5513  -7.1084  -6.8910  -6.3324  -5.4210  -4.9426  -4.8388
    -4.7534  -3.8316   0.4056   0.7783   1.0799   1.2451   1.4964   1.6936
     2.2325   2.3274   2.4913   2.7916   2.9441   3.0684   3.1261   3.1697
     3.5624   3.5817   3.7478   3.9489   3.9977   4.0243   4.2612   4.6796
     4.7621   5.3722   5.7733   5.9035   5.9878   6.1093   6.3194   6.7131
     6.9980   7.1315

          k = 0.0000-0.3869 0.1485 ( 36452 PWs)   bands (ev):

   -44.1348 -44.1348 -22.2595 -22.2595 -22.1668 -22.1668 -22.0657 -22.0656
    -7.8444  -7.6260  -7.0480  -6.9081  -6.2479  -5.6674  -4.8779  -4.7749
    -4.6191  -3.9439   0.4658   0.9514   1.0219   1.1643   1.2325   1.9433
     2.1530   2.2587   2.4321   2.8353   2.9330   3.0252   3.1211   3.3315
     3.5508   3.7012   3.8140   3.9157   4.0479   4.0703   4.1793   4.6794
     4.7228   4.9567   5.9118   6.0436   6.0686   6.0773   6.5528   6.5685
     6.8233   7.0853

          k = 0.0000-0.3869-0.2971 ( 36454 PWs)   bands (ev):

   -44.1348 -44.1348 -22.2595 -22.2595 -22.1668 -22.1668 -22.0656 -22.0656
    -7.7520  -7.7520  -6.9611  -6.9611  -6.0070  -6.0070  -4.8245  -4.8245
    -4.2393  -4.2393   0.6841   0.6841   1.1692   1.1692   1.3971   1.3971
     2.3323   2.3323   2.6798   2.6798   2.8969   2.8969   3.1660   3.1660
     3.8128   3.8128   3.9872   3.9872   4.0002   4.0002   4.3603   4.3603
     4.6868   4.6868   5.9603   5.9603   6.3014   6.3014   6.4508   6.4508
     6.9091   6.9091

          k =-2.0325 0.0000 0.0000 ( 36452 PWs)   bands (ev):

   -44.1348 -44.1348 -22.2595 -22.2595 -22.1668 -22.1668 -22.0657 -22.0656
    -7.8737  -7.5507  -7.1052  -6.8929  -6.3413  -5.4225  -4.9492  -4.8365
    -4.7513  -3.8322   0.4114   0.7834   1.2011   1.2251   1.5061   1.7364
     2.2332   2.3296   2.4905   2.8000   2.9446   3.0006   3.0534   3.0881
     3.5830   3.6957   3.7362   3.8504   3.9472   3.9658   4.2612   4.6793
     4.7512   5.3642   5.7967   5.9113   6.0229   6.1239   6.3377   6.6648
     6.9980   7.1255

          k =-2.0325 0.0000 0.1485 ( 36456 PWs)   bands (ev):

   -44.1348 -44.1348 -22.2595 -22.2595 -22.1668 -22.1668 -22.0657 -22.0656
    -7.8410  -7.6243  -7.0471  -6.9102  -6.2549  -5.6692  -4.8842  -4.7735
    -4.6171  -3.9440   0.4697   0.9606   1.0404   1.2323   1.2773   1.9513
     2.1726   2.2594   2.4322   2.8418   2.9343   2.9365   3.0024   3.3435
     3.5291   3.7775   3.8033   3.9221   3.9548   4.0062   4.1759   4.6790
     4.7163   4.9566   5.9360   6.0600   6.0707   6.0830   6.5357   6.5626
     6.8243   7.0748

          k =-2.0325 0.0000-0.2971 ( 36460 PWs)   bands (ev):

   -44.1348 -44.1348 -22.2595 -22.2595 -22.1668 -22.1668 -22.0656 -22.0656
    -7.7491  -7.7491  -6.9626  -6.9626  -6.0107  -6.0107  -4.8269  -4.8269
    -4.2384  -4.2384   0.6871   0.6871   1.2377   1.2377   1.4050   1.4050
     2.3329   2.3329   2.6714   2.6714   2.9005   2.9005   3.0717   3.0717
     3.8638   3.8638   3.9272   3.9272   3.9792   3.9792   4.3518   4.3518
     4.6850   4.6850   5.9565   5.9565   6.3109   6.3109   6.4538   6.4538
     6.8954   6.8954

     the Fermi energy is     5.5711 ev

!    total energy              =   -4240.95391475 Ry

     total all-electron energy =   -150287.647609 Ry
     estimated scf accuracy    <          5.1E-12 Ry
     smearing contrib. (-TS)   =       0.00002819 Ry
     internal energy E=F+TS    =   -4240.95394293 Ry

     The total energy is F=E-TS. E is the sum of the following terms:
     one-electron contribution =    -167.08887225 Ry
     hartree contribution      =     117.02069339 Ry
     xc contribution           =    -201.51118085 Ry
     ewald contribution        =    -221.85282953 Ry
     one-center paw contrib.   =   -3767.52175370 Ry

     convergence has been achieved in  17 iterations

     Forces acting on atoms (cartesian axes, Ry/au):

     atom    1 type  1   force =    -0.00000000    0.00167570    0.00000000
     atom    2 type  1   force =     0.00000000   -0.00167570    0.00000000
     atom    3 type  2   force =     0.00000000    0.00007222    0.00000000
     atom    4 type  2   force =     0.00000000   -0.00007222    0.00000000
     atom    5 type  2   force =     0.00000000   -0.00038729   -0.00001207
     atom    6 type  2   force =     0.00000000    0.00038729    0.00001207
     atom    7 type  2   force =     0.00000000   -0.00038729    0.00001207
     atom    8 type  2   force =     0.00000000    0.00038729   -0.00001207
     atom    9 type  2   force =     0.00000000   -0.00266061   -0.00281452
     atom   10 type  2   force =     0.00000000    0.00266061    0.00281452
     atom   11 type  2   force =     0.00000000   -0.00266061    0.00281452
     atom   12 type  2   force =     0.00000000    0.00266061   -0.00281452

     Total force =     0.008138     Total SCF correction =     0.000003


     Computing stress (Cartesian axis) and pressure

          total   stress  (Ry/bohr**3)                   (kbar)     P=        0.63
   0.00000408   0.00000000   0.00000000            0.60        0.00        0.00
  -0.00000000   0.00000311   0.00000000           -0.00        0.46        0.00
   0.00000000   0.00000000   0.00000558            0.00        0.00        0.82

 
     init_run     :     34.87s CPU     35.44s WALL (       1 calls)
     electrons    :   1630.50s CPU   1647.21s WALL (       1 calls)
     forces       :      7.37s CPU      7.61s WALL (       1 calls)
     stress       :     48.34s CPU     49.06s WALL (       1 calls)

     Called by init_run:
     wfcinit      :     30.14s CPU     30.36s WALL (       1 calls)
     potinit      :      1.55s CPU      1.61s WALL (       1 calls)
     hinit0       :      1.65s CPU      1.67s WALL (       1 calls)

     Called by electrons:
     c_bands      :   1301.92s CPU   1308.63s WALL (      18 calls)
     sum_band     :    296.04s CPU    301.97s WALL (      18 calls)
     v_of_rho     :      8.38s CPU      8.99s WALL (      18 calls)
     newd         :     17.25s CPU     20.91s WALL (      18 calls)
     PAW_pot      :      6.39s CPU      6.40s WALL (      18 calls)
     mix_rho      :      1.51s CPU      1.55s WALL (      18 calls)

     Called by c_bands:
     init_us_2    :     14.19s CPU     14.25s WALL (    2457 calls)
     cegterg      :   1226.04s CPU   1232.03s WALL (    1134 calls)

     Called by *egterg:
     cdiaghg      :     26.75s CPU     26.86s WALL (    7733 calls)
     h_psi        :   1061.01s CPU   1066.73s WALL (    7859 calls)
     s_psi        :     49.38s CPU     49.46s WALL (    7859 calls)
     g_psi        :      2.06s CPU      2.08s WALL (    6662 calls)

     Called by h_psi:
     h_psi:calbec :     41.27s CPU     41.35s WALL (    7859 calls)
     vloc_psi     :    966.71s CPU    972.21s WALL (    7859 calls)
     add_vuspsi   :     49.31s CPU     49.38s WALL (    7859 calls)

     General routines
     calbec       :     55.21s CPU     55.34s WALL (    9308 calls)
     fft          :      7.66s CPU      7.85s WALL (     258 calls)
     ffts         :      0.18s CPU      0.18s WALL (      36 calls)
     fftw         :    979.83s CPU    985.38s WALL (  402172 calls)
     interpolate  :      0.61s CPU      0.62s WALL (      18 calls)
 
     Parallel routines
     fft_scatt_xy :    258.35s CPU    259.87s WALL (  402466 calls)
     fft_scatt_yz :    194.90s CPU    196.31s WALL (  402466 calls)
 
     PWSCF        :  28m41.32s CPU  28m59.79s WALL

 
   This run was terminated on:  15:14:56  19Nov2021            

=------------------------------------------------------------------------------=
   JOB DONE.
=------------------------------------------------------------------------------=
