
     Program PWSCF v.6.7MaX starts on 19Nov2021 at 14:46:16 

     This program is part of the open-source Quantum ESPRESSO suite
     for quantum simulation of materials; please cite
         "P. Giannozzi et al., J. Phys.:Condens. Matter 21 395502 (2009);
         "P. Giannozzi et al., J. Phys.:Condens. Matter 29 465901 (2017);
          URL http://www.quantum-espresso.org", 
     in publications or presentations arising from this work. More details at
     http://www.quantum-espresso.org/quote

     Parallel version (MPI), running on    10 processors

     MPI processes distributed on     1 nodes
     R & G space division:  proc/nbgrp/npool/nimage =      10
     Waiting for input...
     Reading input from standard input

     Current dimensions of program PWSCF are:
     Max number of different atomic species (ntypx) = 10
     Max number of k-points (npk) =  40000
     Max angular momentum in pseudopotentials (lmaxx) =  3
     file Zr.pbe-spn-kjpaw_psl.1.0.0.UPF: wavefunction(s)  4S 4P renormalized
     file Te.pbe-n-kjpaw_psl.1.0.0.UPF: wavefunction(s)  5S 5P renormalized

     Subspace diagonalization in iterative solution of the eigenvalue problem:
     a serial algorithm will be used

     Message from routine setup:
     using ibrav=0 with symmetry is DISCOURAGED, use correct ibrav instead
 
     Parallelization info
     --------------------
     sticks:   dense  smooth     PW     G-vecs:    dense   smooth      PW
     Min         734     293     87               115340    29174    4753
     Max         735     295     88               115345    29176    4760
     Sum        7345    2937    873              1153415   291749   47557
 


     bravais-lattice index     =            0
     lattice parameter (alat)  =      15.5510  a.u.
     unit-cell volume          =    3018.5011 (a.u.)^3
     number of atoms/cell      =           12
     number of atomic types    =            2
     number of electrons       =        84.00
     number of Kohn-Sham states=           50
     kinetic-energy cutoff     =      80.0000  Ry
     charge density cutoff     =     800.0000  Ry
     scf convergence threshold =      1.0E-10
     mixing beta               =       0.7000
     number of iterations used =            8  plain     mixing
     Exchange-correlation= SLA  PW   PBX  PBC
                           (   1   4   3   4   0   0   0)

     celldm(1)=  15.551040  celldm(2)=   0.000000  celldm(3)=   0.000000
     celldm(4)=   0.000000  celldm(5)=   0.000000  celldm(6)=   0.000000

     crystal axes: (cart. coord. in units of alat)
               a(1) = (   0.246007  -0.969268   0.000000 )  
               a(2) = (   0.246007   0.969268   0.000000 )  
               a(3) = (   0.000000   0.000000   1.683031 )  

     reciprocal axes: (cart. coord. in units 2 pi/alat)
               b(1) = (  2.032465 -0.515853  0.000000 )  
               b(2) = (  2.032465  0.515853  0.000000 )  
               b(3) = (  0.000000  0.000000  0.594166 )  


     PseudoPot. # 1 for Zr read from file:
     pseudo/Zr.pbe-spn-kjpaw_psl.1.0.0.UPF
     MD5 check sum: 02112c41713a0468aff2bb39ef194e36
     Pseudo is Projector augmented-wave + core cor, Zval = 12.0
     Generated using &quot;atomic&quot; code by A. Dal Corso  v.6.2.2
     Shape of augmentation charge: PSQ
     Using radial grid of 1225 points,  6 beta functions with: 
                l(1) =   0
                l(2) =   0
                l(3) =   1
                l(4) =   1
                l(5) =   2
                l(6) =   2
     Q(r) pseudized with 0 coefficients 


     PseudoPot. # 2 for Te read from file:
     pseudo/Te.pbe-n-kjpaw_psl.1.0.0.UPF
     MD5 check sum: 66247bff2bd9dbf220fbb0bf5ab56e9d
     Pseudo is Projector augmented-wave + core cor, Zval =  6.0
     Generated using &quot;atomic&quot; code by A. Dal Corso  v.6.3
     Shape of augmentation charge: PSQ
     Using radial grid of 1245 points,  6 beta functions with: 
                l(1) =   0
                l(2) =   0
                l(3) =   1
                l(4) =   1
                l(5) =   2
                l(6) =   2
     Q(r) pseudized with 0 coefficients 


     atomic species   valence    mass     pseudopotential
        Zr            12.00    91.22000     Zr( 1.00)
        Te             6.00   127.60000     Te( 1.00)

      8 Sym. Ops., with inversion, found ( 4 have fractional translation)



   Cartesian axes

     site n.     atom                  positions (alat units)
         1           Zr  tau(   1) = (   0.0000000   0.6031575   0.4207578  )
         2           Zr  tau(   2) = (   0.2460067   0.3661106   1.2622733  )
         3           Te  tau(   3) = (   0.2460067   0.3341992   0.4207578  )
         4           Te  tau(   4) = (   0.0000000   0.6350690   1.2622733  )
         5           Te  tau(   5) = (   0.2460067   0.8109410   0.2528246  )
         6           Te  tau(   6) = (   0.0000000   0.1583272   1.4302065  )
         7           Te  tau(   7) = (   0.2460067   0.8109410   0.5886909  )
         8           Te  tau(   8) = (   0.0000000   0.1583272   1.0943401  )
         9           Te  tau(   9) = (   0.0000000   0.4191837   0.7349771  )
        10           Te  tau(  10) = (   0.2460067   0.5500844   0.9480539  )
        11           Te  tau(  11) = (   0.0000000   0.4191837   0.1065384  )
        12           Te  tau(  12) = (   0.2460067   0.5500844   1.5764927  )

     number of k points=    63  Methfessel-Paxton smearing, width (Ry)=  0.0030
                       cart. coord. in units 2pi/alat
        k(    1) = (   0.0000000   0.0000000   0.0000000), wk =   0.0078125
        k(    2) = (   0.0000000   0.0000000   0.1485415), wk =   0.0156250
        k(    3) = (   0.0000000   0.0000000  -0.2970830), wk =   0.0078125
        k(    4) = (   0.2540581   0.0644816   0.0000000), wk =   0.0312500
        k(    5) = (   0.2540581   0.0644816   0.1485415), wk =   0.0625000
        k(    6) = (   0.2540581   0.0644816  -0.2970830), wk =   0.0312500
        k(    7) = (   0.5081162   0.1289633   0.0000000), wk =   0.0312500
        k(    8) = (   0.5081162   0.1289633   0.1485415), wk =   0.0625000
        k(    9) = (   0.5081162   0.1289633  -0.2970830), wk =   0.0312500
        k(   10) = (   0.7621743   0.1934449   0.0000000), wk =   0.0312500
        k(   11) = (   0.7621743   0.1934449   0.1485415), wk =   0.0625000
        k(   12) = (   0.7621743   0.1934449  -0.2970830), wk =   0.0312500
        k(   13) = (  -1.0162324  -0.2579266   0.0000000), wk =   0.0156250
        k(   14) = (  -1.0162324  -0.2579266   0.1485415), wk =   0.0312500
        k(   15) = (  -1.0162324  -0.2579266  -0.2970830), wk =   0.0156250
        k(   16) = (   0.5081162   0.0000000   0.0000000), wk =   0.0156250
        k(   17) = (   0.5081162   0.0000000   0.1485415), wk =   0.0312500
        k(   18) = (   0.5081162   0.0000000  -0.2970830), wk =   0.0156250
        k(   19) = (   0.7621743   0.0644816   0.0000000), wk =   0.0312500
        k(   20) = (   0.7621743   0.0644816   0.1485415), wk =   0.0625000
        k(   21) = (   0.7621743   0.0644816  -0.2970830), wk =   0.0312500
        k(   22) = (   1.0162324   0.1289633   0.0000000), wk =   0.0312500
        k(   23) = (   1.0162324   0.1289633   0.1485415), wk =   0.0625000
        k(   24) = (   1.0162324   0.1289633  -0.2970830), wk =   0.0312500
        k(   25) = (  -0.7621743  -0.3224082   0.0000000), wk =   0.0312500
        k(   26) = (  -0.7621743  -0.3224082   0.1485415), wk =   0.0625000
        k(   27) = (  -0.7621743  -0.3224082  -0.2970830), wk =   0.0312500
        k(   28) = (  -0.5081162  -0.2579266   0.0000000), wk =   0.0312500
        k(   29) = (  -0.5081162  -0.2579266   0.1485415), wk =   0.0625000
        k(   30) = (  -0.5081162  -0.2579266  -0.2970830), wk =   0.0312500
        k(   31) = (  -0.2540581  -0.1934449   0.0000000), wk =   0.0312500
        k(   32) = (  -0.2540581  -0.1934449   0.1485415), wk =   0.0625000
        k(   33) = (  -0.2540581  -0.1934449  -0.2970830), wk =   0.0312500
        k(   34) = (   0.0000000  -0.1289633   0.0000000), wk =   0.0156250
        k(   35) = (   0.0000000  -0.1289633   0.1485415), wk =   0.0312500
        k(   36) = (   0.0000000  -0.1289633  -0.2970830), wk =   0.0156250
        k(   37) = (   1.0162324   0.0000000   0.0000000), wk =   0.0156250
        k(   38) = (   1.0162324   0.0000000   0.1485415), wk =   0.0312500
        k(   39) = (   1.0162324   0.0000000  -0.2970830), wk =   0.0156250
        k(   40) = (   1.2702905   0.0644816   0.0000000), wk =   0.0312500
        k(   41) = (   1.2702905   0.0644816   0.1485415), wk =   0.0625000
        k(   42) = (   1.2702905   0.0644816  -0.2970830), wk =   0.0312500
        k(   43) = (  -0.5081162  -0.3868899   0.0000000), wk =   0.0312500
        k(   44) = (  -0.5081162  -0.3868899   0.1485415), wk =   0.0625000
        k(   45) = (  -0.5081162  -0.3868899  -0.2970830), wk =   0.0312500
        k(   46) = (  -0.2540581  -0.3224082   0.0000000), wk =   0.0312500
        k(   47) = (  -0.2540581  -0.3224082   0.1485415), wk =   0.0625000
        k(   48) = (  -0.2540581  -0.3224082  -0.2970830), wk =   0.0312500
        k(   49) = (   0.0000000  -0.2579266   0.0000000), wk =   0.0156250
        k(   50) = (   0.0000000  -0.2579266   0.1485415), wk =   0.0312500
        k(   51) = (   0.0000000  -0.2579266  -0.2970830), wk =   0.0156250
        k(   52) = (   1.5243485   0.0000000   0.0000000), wk =   0.0156250
        k(   53) = (   1.5243485   0.0000000   0.1485415), wk =   0.0312500
        k(   54) = (   1.5243485   0.0000000  -0.2970830), wk =   0.0156250
        k(   55) = (  -0.2540581  -0.4513715   0.0000000), wk =   0.0312500
        k(   56) = (  -0.2540581  -0.4513715   0.1485415), wk =   0.0625000
        k(   57) = (  -0.2540581  -0.4513715  -0.2970830), wk =   0.0312500
        k(   58) = (   0.0000000  -0.3868899   0.0000000), wk =   0.0156250
        k(   59) = (   0.0000000  -0.3868899   0.1485415), wk =   0.0312500
        k(   60) = (   0.0000000  -0.3868899  -0.2970830), wk =   0.0156250
        k(   61) = (  -2.0324647   0.0000000   0.0000000), wk =   0.0078125
        k(   62) = (  -2.0324647   0.0000000   0.1485415), wk =   0.0156250
        k(   63) = (  -2.0324647   0.0000000  -0.2970830), wk =   0.0078125

     Dense  grid:  1153415 G-vectors     FFT dimensions: ( 144, 144, 240)

     Smooth grid:   291749 G-vectors     FFT dimensions: (  90,  90, 150)

     Estimated max dynamical RAM per process >     657.19 MB

     Estimated total dynamical RAM >       6.42 GB

     Initial potential from superposition of free atoms

     starting charge   83.99353, renormalised to   84.00000
     Starting wfcs are   66 randomized atomic wfcs
     Checking if some PAW data can be deallocated... 

     total cpu time spent up to now is       42.3 secs

     Self-consistent Calculation

     iteration #  1     ecut=    80.00 Ry     beta= 0.70
     Davidson diagonalization with overlap
     ethr =  1.00E-02,  avg # of iterations =  2.1

     Threshold (ethr) on eigenvalues was too large:
     Diagonalizing with lowered threshold

     Davidson diagonalization with overlap
     ethr =  4.36E-04,  avg # of iterations =  4.0

     total cpu time spent up to now is      205.5 secs

     total energy              =   -4240.72529422 Ry
     estimated scf accuracy    <       0.44041924 Ry

     iteration #  2     ecut=    80.00 Ry     beta= 0.70
     Davidson diagonalization with overlap
     ethr =  5.24E-04,  avg # of iterations =  7.9

     total cpu time spent up to now is      319.1 secs

     total energy              =   -4240.63120529 Ry
     estimated scf accuracy    <       2.02664496 Ry

     iteration #  3     ecut=    80.00 Ry     beta= 0.70
     Davidson diagonalization with overlap
     ethr =  5.24E-04,  avg # of iterations =  5.5

     total cpu time spent up to now is      413.7 secs

     total energy              =   -4240.93781788 Ry
     estimated scf accuracy    <       0.00787623 Ry

     iteration #  4     ecut=    80.00 Ry     beta= 0.70
     Davidson diagonalization with overlap
     c_bands:  1 eigenvalues not converged
     c_bands:  1 eigenvalues not converged
     c_bands:  2 eigenvalues not converged
     c_bands:  1 eigenvalues not converged
     c_bands:  2 eigenvalues not converged
     c_bands:  1 eigenvalues not converged
     c_bands:  1 eigenvalues not converged
     c_bands:  2 eigenvalues not converged
     c_bands:  1 eigenvalues not converged
     c_bands:  2 eigenvalues not converged
     c_bands:  3 eigenvalues not converged
     c_bands:  1 eigenvalues not converged
     c_bands:  1 eigenvalues not converged
     c_bands:  1 eigenvalues not converged
     c_bands:  1 eigenvalues not converged
     c_bands:  2 eigenvalues not converged
     c_bands:  1 eigenvalues not converged
     c_bands:  1 eigenvalues not converged
     c_bands:  1 eigenvalues not converged
     ethr =  9.38E-06,  avg # of iterations = 18.0

     total cpu time spent up to now is      592.8 secs

     total energy              =   -4240.94718771 Ry
     estimated scf accuracy    <       0.03890155 Ry

     iteration #  5     ecut=    80.00 Ry     beta= 0.70
     Davidson diagonalization with overlap
     ethr =  9.38E-06,  avg # of iterations =  7.2

     total cpu time spent up to now is      686.0 secs

     total energy              =   -4240.94891129 Ry
     estimated scf accuracy    <       0.00661530 Ry

     iteration #  6     ecut=    80.00 Ry     beta= 0.70
     Davidson diagonalization with overlap
     ethr =  7.88E-06,  avg # of iterations =  3.6

     total cpu time spent up to now is      764.7 secs

     total energy              =   -4240.94959003 Ry
     estimated scf accuracy    <       0.00074499 Ry

     iteration #  7     ecut=    80.00 Ry     beta= 0.70
     Davidson diagonalization with overlap
     ethr =  8.87E-07,  avg # of iterations =  9.7

     total cpu time spent up to now is      883.8 secs

     total energy              =   -4240.94998668 Ry
     estimated scf accuracy    <       0.00111141 Ry

     iteration #  8     ecut=    80.00 Ry     beta= 0.70
     Davidson diagonalization with overlap
     ethr =  8.87E-07,  avg # of iterations =  2.2

     total cpu time spent up to now is      956.1 secs

     total energy              =   -4240.95002224 Ry
     estimated scf accuracy    <       0.00015579 Ry

     iteration #  9     ecut=    80.00 Ry     beta= 0.70
     Davidson diagonalization with overlap
     ethr =  1.85E-07,  avg # of iterations =  6.4

     total cpu time spent up to now is     1047.4 secs

     total energy              =   -4240.95007222 Ry
     estimated scf accuracy    <       0.00001935 Ry

     iteration # 10     ecut=    80.00 Ry     beta= 0.70
     Davidson diagonalization with overlap
     ethr =  2.30E-08,  avg # of iterations =  4.1

     total cpu time spent up to now is     1126.3 secs

     total energy              =   -4240.95007437 Ry
     estimated scf accuracy    <       0.00000494 Ry

     iteration # 11     ecut=    80.00 Ry     beta= 0.70
     Davidson diagonalization with overlap
     c_bands:  1 eigenvalues not converged
     ethr =  5.88E-09,  avg # of iterations =  6.3

     total cpu time spent up to now is     1217.9 secs

     total energy              =   -4240.95007616 Ry
     estimated scf accuracy    <       0.00000101 Ry

     iteration # 12     ecut=    80.00 Ry     beta= 0.70
     Davidson diagonalization with overlap
     ethr =  1.20E-09,  avg # of iterations =  3.2

     total cpu time spent up to now is     1291.7 secs

     total energy              =   -4240.95007626 Ry
     estimated scf accuracy    <       0.00000009 Ry

     iteration # 13     ecut=    80.00 Ry     beta= 0.70
     Davidson diagonalization with overlap
     ethr =  1.04E-10,  avg # of iterations =  7.6

     total cpu time spent up to now is     1397.1 secs

     total energy              =   -4240.95007632 Ry
     estimated scf accuracy    <       0.00000005 Ry

     iteration # 14     ecut=    80.00 Ry     beta= 0.70
     Davidson diagonalization with overlap
     ethr =  6.30E-11,  avg # of iterations =  1.6

     total cpu time spent up to now is     1465.3 secs

     total energy              =   -4240.95007631 Ry
     estimated scf accuracy    <       0.00000002 Ry

     iteration # 15     ecut=    80.00 Ry     beta= 0.70
     Davidson diagonalization with overlap
     ethr =  2.90E-11,  avg # of iterations =  5.5

     total cpu time spent up to now is     1549.3 secs

     total energy              =   -4240.95007632 Ry
     estimated scf accuracy    <          1.2E-09 Ry

     iteration # 16     ecut=    80.00 Ry     beta= 0.70
     Davidson diagonalization with overlap
     ethr =  1.41E-12,  avg # of iterations =  6.1

     total cpu time spent up to now is     1641.1 secs

     total energy              =   -4240.95007632 Ry
     estimated scf accuracy    <          9.7E-10 Ry

     iteration # 17     ecut=    80.00 Ry     beta= 0.70
     Davidson diagonalization with overlap
     ethr =  1.15E-12,  avg # of iterations =  2.4

     total cpu time spent up to now is     1711.5 secs

     total energy              =   -4240.95007632 Ry
     estimated scf accuracy    <          2.3E-10 Ry

     iteration # 18     ecut=    80.00 Ry     beta= 0.70
     Davidson diagonalization with overlap
     ethr =  2.71E-13,  avg # of iterations =  6.1

     total cpu time spent up to now is     1794.7 secs

     End of self-consistent calculation

          k = 0.0000 0.0000 0.0000 ( 36359 PWs)   bands (ev):

   -44.1391 -44.1391 -22.2589 -22.2589 -22.1680 -22.1680 -22.0723 -22.0722
    -8.0288  -7.7584  -7.1287  -6.9142  -6.1974  -5.4141  -4.8218  -4.8134
    -4.7637  -3.8054   0.2826   0.7640   0.8024   1.1415   1.3721   1.5362
     2.0794   2.2660   2.2895   2.7772   2.9228   3.0006   3.3184   3.3327
     3.7735   3.8733   4.0348   4.0836   4.3048   4.3401   4.4073   4.7058
     4.7602   5.4148   5.6376   5.8693   5.9051   5.9468   6.0231   6.7909
     7.0363   7.2775

          k = 0.0000 0.0000 0.1485 ( 36415 PWs)   bands (ev):

   -44.1391 -44.1391 -22.2589 -22.2589 -22.1680 -22.1680 -22.0723 -22.0722
    -7.9993  -7.8138  -7.0775  -6.9329  -6.1284  -5.6257  -4.8073  -4.7713
    -4.5824  -3.9179   0.3562   0.8334   0.9092   0.9697   1.0982   1.8798
     2.0308   2.1007   2.2299   2.8083   2.9081   3.0805   3.4011   3.4279
     3.7501   3.9279   4.0088   4.0920   4.2355   4.3681   4.4203   4.7027
     4.7283   4.9312   5.8366   5.9022   5.9066   6.1114   6.3938   6.6220
     6.8520   7.1528

          k = 0.0000 0.0000-0.2971 ( 36410 PWs)   bands (ev):

   -44.1391 -44.1391 -22.2589 -22.2589 -22.1680 -22.1680 -22.0722 -22.0722
    -7.9179  -7.9179  -6.9906  -6.9906  -5.9247  -5.9247  -4.7894  -4.7894
    -4.2108  -4.2108   0.5815   0.5815   0.9533   0.9533   1.3449   1.3449
     2.1585   2.1585   2.5976   2.5976   2.8657   2.8657   3.5581   3.5581
     3.9172   3.9172   4.0727   4.0727   4.3291   4.3291   4.4099   4.4099
     4.7025   4.7025   5.8984   5.8984   6.2251   6.2251   6.4755   6.4755
     6.8762   6.8762

          k = 0.2541 0.0645 0.0000 ( 36396 PWs)   bands (ev):

   -44.1387 -44.1387 -22.2570 -22.2570 -22.1776 -22.1776 -22.0712 -22.0710
    -7.9070  -7.6401  -7.0614  -6.8656  -6.1369  -5.3668  -4.8557  -4.7692
    -4.7188  -3.9716   0.3664   0.8829   0.9287   1.1038   1.2543   1.4661
     1.6369   1.7789   1.8089   2.5813   2.6082   3.2306   3.2516   3.7154
     3.7665   3.7740   3.8566   3.8609   4.0522   4.2530   4.3211   4.3657
     4.4795   4.5698   5.8776   5.9788   6.1872   6.5431   6.6141   6.6544
     7.0286   7.2051

          k = 0.2541 0.0645 0.1485 ( 36423 PWs)   bands (ev):

   -44.1387 -44.1387 -22.2570 -22.2570 -22.1776 -22.1776 -22.0712 -22.0711
    -7.8779  -7.6950  -7.0141  -6.8826  -6.0670  -5.5732  -4.7759  -4.7282
    -4.6218  -4.0607   0.4286   0.8881   0.9265   0.9716   1.2042   1.3105
     1.7358   1.8552   2.1505   2.5758   2.5911   2.9547   3.3842   3.3923
     3.5347   3.8148   3.9507   3.9937   4.0472   4.1861   4.3717   4.3864
     4.6895   4.7768   5.8666   5.9776   6.1442   6.2485   6.3620   6.7738
     7.2135   7.2715

          k = 0.2541 0.0645-0.2971 ( 36436 PWs)   bands (ev):

   -44.1387 -44.1387 -22.2570 -22.2570 -22.1776 -22.1776 -22.0711 -22.0711
    -7.7978  -7.7978  -6.9349  -6.9349  -5.8646  -5.8646  -4.7508  -4.7508
    -4.3018  -4.3018   0.6132   0.6132   1.0283   1.0283   1.1232   1.1232
     1.9270   1.9270   2.4845   2.4845   2.6586   2.6586   3.2360   3.2360
     3.6564   3.6564   3.9773   3.9773   4.1416   4.1416   4.3917   4.3917
     4.9703   4.9703   5.7925   5.7925   6.1483   6.1483   6.4542   6.4542
     7.3818   7.3818

          k = 0.5081 0.1290 0.0000 ( 36499 PWs)   bands (ev):

   -44.1378 -44.1378 -22.2523 -22.2523 -22.2008 -22.2008 -22.0685 -22.0684
    -7.5538  -7.2941  -6.9016  -6.7426  -5.9576  -5.2539  -5.0249  -4.6557
    -4.6082  -4.4629   0.2189   0.5486   0.6622   1.1627   1.1756   1.3083
     1.6338   1.7053   1.8725   2.0925   2.1536   2.3259   2.5005   3.4078
     3.5055   3.5145   3.5799   3.6061   3.7712   3.8567   3.9636   4.1997
     4.3515   4.9542   5.7122   6.1117   6.2015   6.6013   6.6269   7.0022
     7.4500   7.5598

          k = 0.5081 0.1290 0.1485 ( 36476 PWs)   bands (ev):

   -44.1378 -44.1378 -22.2523 -22.2523 -22.2008 -22.2008 -22.0684 -22.0684
    -7.5261  -7.3496  -6.8611  -6.7561  -5.8897  -5.4471  -4.8717  -4.6402
    -4.6256  -4.4858   0.2583   0.5460   0.7613   0.9387   1.2190   1.3007
     1.4074   1.5700   2.0099   2.0940   2.3491   2.4569   2.8314   3.4004
     3.4377   3.5030   3.5101   3.6359   3.7393   3.7664   3.8579   4.2434
     4.3005   4.4812   6.1946   6.2308   6.3850   6.6017   6.6754   6.8692
     7.2955   7.5210

          k = 0.5081 0.1290-0.2971 ( 36466 PWs)   bands (ev):

   -44.1378 -44.1378 -22.2523 -22.2523 -22.2008 -22.2008 -22.0684 -22.0684
    -7.4495  -7.4495  -6.7975  -6.7975  -5.7027  -5.7027  -4.7221  -4.7221
    -4.5536  -4.5536   0.3966   0.3966   0.9934   0.9934   1.0295   1.0295
     1.4428   1.4428   2.0558   2.0558   2.6802   2.6802   3.1772   3.1772
     3.3976   3.3976   3.5674   3.5674   3.7346   3.7346   3.8680   3.8680
     4.3236   4.3236   6.4340   6.4340   6.5667   6.5667   6.8646   6.8646
     7.1891   7.1891

          k = 0.7622 0.1934 0.0000 ( 36521 PWs)   bands (ev):

   -44.1369 -44.1369 -22.2475 -22.2475 -22.2239 -22.2239 -22.0657 -22.0657
    -7.0355  -6.7529  -6.7523  -6.5726  -5.7380  -5.4507  -5.1757  -5.1333
    -4.5300  -4.4928  -0.0945   0.0191   0.3659   0.9601   0.9710   1.2851
     1.4854   1.6013   1.9957   2.1571   2.2336   2.2826   2.4340   2.8017
     2.9428   3.2604   3.3516   3.4870   3.5227   3.6680   3.7306   3.7826
     3.8264   4.5727   6.0317   6.3982   6.4675   6.8945   6.9167   6.9858
     7.3545   7.6349

          k = 0.7622 0.1934 0.1485 ( 36503 PWs)   bands (ev):

   -44.1369 -44.1369 -22.2475 -22.2475 -22.2239 -22.2239 -22.0657 -22.0657
    -7.0118  -6.8512  -6.6719  -6.5836  -5.6936  -5.4893  -5.1741  -5.1420
    -4.5220  -4.4962  -0.0742   0.1641   0.2557   0.8424   0.9705   1.2399
     1.4964   1.6105   1.9737   2.0452   2.1251   2.6013   2.6933   2.8815
     2.9124   3.0575   3.2715   3.3779   3.5188   3.6152   3.6985   3.9317
     3.9792   4.4821   5.8430   6.3964   6.7014   6.8264   7.0015   7.0124
     7.1358   7.6320

          k = 0.7622 0.1934-0.2971 ( 36522 PWs)   bands (ev):

   -44.1369 -44.1369 -22.2475 -22.2475 -22.2239 -22.2239 -22.0657 -22.0657
    -6.9455  -6.9455  -6.6163  -6.6163  -5.5890  -5.5890  -5.1610  -5.1610
    -4.5069  -4.5069   0.0544   0.0544   0.4915   0.4915   1.0820   1.0820
     1.5608   1.5608   2.0089   2.0089   2.4062   2.4062   2.8332   2.8332
     2.9767   2.9767   3.2924   3.2924   3.5978   3.5978   3.9310   3.9310
     4.0659   4.0659   6.2614   6.2614   6.4902   6.4902   7.0295   7.0295
     7.5014   7.5014

          k =-1.0162-0.2579 0.0000 ( 36506 PWs)   bands (ev):

   -44.1366 -44.1366 -22.2454 -22.2454 -22.2335 -22.2335 -22.0646 -22.0646
    -6.7358  -6.7154  -6.1274  -6.1161  -6.0918  -6.0862  -5.2536  -5.2530
    -4.4724  -4.4446  -0.0817  -0.0610   0.2302   0.2519   1.0110   1.0196
     1.4672   1.6643   2.2246   2.3881   2.4045   2.4263   2.8141   2.8143
     2.8215   2.8340   3.1929   3.2510   3.3158   3.3805   3.4551   3.6580
     3.8758   4.1534   6.6252   6.6733   6.6939   6.6989   7.0781   7.1744
     7.1777   7.2283

          k =-1.0162-0.2579 0.1485 ( 36506 PWs)   bands (ev):

   -44.1366 -44.1366 -22.2454 -22.2454 -22.2335 -22.2335 -22.0646 -22.0646
    -6.7316  -6.7170  -6.1537  -6.1461  -6.0642  -6.0598  -5.2514  -5.2511
    -4.4711  -4.4514  -0.1777  -0.1714   0.4353   0.4430   1.0066   1.0194
     1.4615   1.5933   2.0362   2.1518   2.3600   2.3965   2.6726   2.6814
     2.9329   3.0481   3.0839   3.1977   3.5503   3.5651   3.6041   3.7355
     4.0478   4.1911   6.1476   6.1673   6.5368   6.6135   7.1777   7.1910
     7.3869   7.4507

          k =-1.0162-0.2579-0.2971 ( 36528 PWs)   bands (ev):

   -44.1366 -44.1366 -22.2454 -22.2454 -22.2335 -22.2335 -22.0646 -22.0646
    -6.7230  -6.7230  -6.1666  -6.1666  -6.0465  -6.0465  -5.2492  -5.2492
    -4.4640  -4.4640  -0.2371  -0.2371   0.6451   0.6451   0.9667   0.9667
     1.5130   1.5130   1.8586   1.8586   2.3617   2.3617   2.7636   2.7636
     2.8600   2.8600   3.1773   3.1773   3.6361   3.6361   3.7999   3.7999
     4.3230   4.3230   5.7529   5.7529   6.4839   6.4839   7.2016   7.2016
     7.5113   7.5113

          k = 0.5081 0.0000 0.0000 ( 36503 PWs)   bands (ev):

   -44.1378 -44.1378 -22.2523 -22.2523 -22.2008 -22.2008 -22.0685 -22.0684
    -7.5567  -7.2946  -6.9022  -6.7401  -5.9544  -5.2536  -5.0223  -4.6495
    -4.6156  -4.4624   0.2240   0.5455   0.6590   1.1713   1.1985   1.2396
     1.6286   1.6990   1.8589   2.0987   2.1533   2.3088   2.5017   3.4002
     3.5320   3.5499   3.5748   3.5867   3.7808   3.9113   3.9463   4.2372
     4.3538   4.9477   5.7181   6.0880   6.2365   6.5639   6.5749   7.0388
     7.4594   7.5795

          k = 0.5081 0.0000 0.1485 ( 36453 PWs)   bands (ev):

   -44.1378 -44.1378 -22.2523 -22.2523 -22.2008 -22.2008 -22.0684 -22.0684
    -7.5288  -7.3509  -6.8606  -6.7537  -5.8871  -5.4466  -4.8678  -4.6413
    -4.6251  -4.4872   0.2615   0.5397   0.7624   0.9439   1.2514   1.2570
     1.3765   1.5476   2.0083   2.1060   2.3556   2.4266   2.8299   3.4125
     3.4703   3.4780   3.5144   3.6462   3.7283   3.8339   3.8393   4.2896
     4.3071   4.4690   6.1841   6.2413   6.4041   6.5556   6.6379   6.9021
     7.3127   7.5332

          k = 0.5081 0.0000-0.2971 ( 36452 PWs)   bands (ev):

   -44.1378 -44.1378 -22.2523 -22.2523 -22.2008 -22.2008 -22.0684 -22.0684
    -7.4518  -7.4518  -6.7955  -6.7955  -5.7015  -5.7015  -4.7184  -4.7184
    -4.5563  -4.5563   0.3953   0.3953   0.9950   0.9950   1.0341   1.0341
     1.4070   1.4070   2.0591   2.0591   2.6706   2.6706   3.1743   3.1743
     3.4046   3.4046   3.5752   3.5752   3.7644   3.7644   3.8620   3.8620
     4.3425   4.3425   6.4492   6.4492   6.5306   6.5306   6.8828   6.8828
     7.1899   7.1899

          k = 0.7622 0.0645 0.0000 ( 36505 PWs)   bands (ev):

   -44.1369 -44.1369 -22.2475 -22.2475 -22.2239 -22.2239 -22.0657 -22.0657
    -7.0425  -6.7534  -6.7504  -6.5668  -5.7382  -5.4481  -5.1762  -5.1324
    -4.5196  -4.5040  -0.0852   0.0160   0.3774   0.9604   0.9913   1.2987
     1.4513   1.5641   1.9607   2.1795   2.2618   2.2634   2.3699   2.7772
     2.9323   3.3068   3.3667   3.5276   3.5431   3.6516   3.6977   3.7944
     3.8317   4.6005   6.0290   6.3755   6.4814   6.8893   6.9453   6.9514
     7.3664   7.6618

          k = 0.7622 0.0645 0.1485 ( 36509 PWs)   bands (ev):

   -44.1369 -44.1369 -22.2475 -22.2475 -22.2239 -22.2239 -22.0657 -22.0657
    -7.0184  -6.8541  -6.6677  -6.5776  -5.6940  -5.4880  -5.1736  -5.1411
    -4.5147  -4.5041  -0.0660   0.1617   0.2639   0.8324   0.9978   1.2540
     1.4658   1.6084   1.9788   2.0058   2.0591   2.6078   2.6895   2.8749
     2.8920   3.0621   3.3178   3.3827   3.5620   3.6044   3.6696   3.9666
     3.9831   4.4769   5.8676   6.3739   6.7163   6.8278   6.9794   7.0478
     7.1083   7.6532

          k = 0.7622 0.0645-0.2971 ( 36472 PWs)   bands (ev):

   -44.1369 -44.1369 -22.2475 -22.2475 -22.2239 -22.2239 -22.0657 -22.0657
    -6.9508  -6.9508  -6.6105  -6.6105  -5.5892  -5.5892  -5.1599  -5.1599
    -4.5071  -4.5071   0.0627   0.0627   0.4842   0.4842   1.1030   1.1030
     1.5551   1.5551   1.9562   1.9562   2.3939   2.3939   2.8369   2.8369
     2.9584   2.9584   3.3467   3.3467   3.5948   3.5948   3.9235   3.9235
     4.0733   4.0733   6.2879   6.2879   6.4899   6.4899   6.9985   6.9985
     7.5290   7.5290

          k = 1.0162 0.1290 0.0000 ( 36514 PWs)   bands (ev):

   -44.1366 -44.1366 -22.2454 -22.2454 -22.2335 -22.2335 -22.0646 -22.0646
    -6.7358  -6.7154  -6.1272  -6.1163  -6.0918  -6.0862  -5.2536  -5.2530
    -4.4724  -4.4446  -0.0874  -0.0552   0.2269   0.2553   1.0037   1.0279
     1.4737   1.6545   2.2218   2.3922   2.4047   2.4220   2.7844   2.8139
     2.8298   2.8716   3.2125   3.2270   3.2955   3.3672   3.5036   3.6386
     3.8600   4.1687   6.6197   6.6594   6.7069   6.7082   7.1006   7.1749
     7.1798   7.2107

          k = 1.0162 0.1290 0.1485 ( 36524 PWs)   bands (ev):

   -44.1366 -44.1366 -22.2454 -22.2454 -22.2335 -22.2335 -22.0646 -22.0646
    -6.7316  -6.7170  -6.1536  -6.1462  -6.0642  -6.0598  -5.2515  -5.2511
    -4.4711  -4.4514  -0.1800  -0.1694   0.4367   0.4422   1.0066   1.0195
     1.4674   1.5873   2.0471   2.1347   2.3619   2.3936   2.6404   2.7200
     2.9375   3.0615   3.0787   3.1877   3.5210   3.5788   3.6282   3.7282
     4.0261   4.2104   6.1417   6.1775   6.5334   6.6161   7.1814   7.1907
     7.3967   7.4422

          k = 1.0162 0.1290-0.2971 ( 36516 PWs)   bands (ev):

   -44.1366 -44.1366 -22.2454 -22.2454 -22.2335 -22.2335 -22.0646 -22.0646
    -6.7230  -6.7230  -6.1665  -6.1665  -6.0465  -6.0465  -5.2492  -5.2492
    -4.4640  -4.4640  -0.2373  -0.2373   0.6455   0.6455   0.9665   0.9665
     1.5141   1.5141   1.8594   1.8594   2.3542   2.3542   2.7459   2.7459
     2.8958   2.8958   3.1637   3.1637   3.6383   3.6383   3.7982   3.7982
     4.3235   4.3235   5.7555   5.7555   6.4832   6.4832   7.2027   7.2027
     7.5124   7.5124

          k =-0.7622-0.3224 0.0000 ( 36511 PWs)   bands (ev):

   -44.1369 -44.1369 -22.2475 -22.2475 -22.2239 -22.2239 -22.0657 -22.0657
    -7.0250  -6.7573  -6.7507  -6.5805  -5.7378  -5.4543  -5.1750  -5.1347
    -4.5380  -4.4837  -0.1074   0.0237   0.3496   0.9264   0.9860   1.2684
     1.5038   1.6663   2.0674   2.1322   2.2304   2.3068   2.4572   2.8381
     2.9539   3.2155   3.3378   3.4739   3.5146   3.6291   3.6751   3.7465
     3.9306   4.5249   6.0355   6.4067   6.4843   6.8125   6.9588   7.0523
     7.3265   7.5976

          k =-0.7622-0.3224 0.1485 ( 36492 PWs)   bands (ev):

   -44.1369 -44.1369 -22.2475 -22.2475 -22.2239 -22.2239 -22.0657 -22.0657
    -7.0019  -6.8471  -6.6783  -6.5920  -5.6930  -5.4910  -5.1746  -5.1435
    -4.5276  -4.4898  -0.0856   0.1686   0.2431   0.8550   0.9413   1.2207
     1.5274   1.6197   1.9618   2.1406   2.1930   2.5960   2.6774   2.9012
     2.9247   3.0752   3.2225   3.3565   3.4745   3.5927   3.7384   3.8791
     3.9881   4.4878   5.8105   6.4324   6.6715   6.8225   6.9653   7.0628
     7.1626   7.5869

          k =-0.7622-0.3224-0.2971 ( 36508 PWs)   bands (ev):

   -44.1369 -44.1369 -22.2475 -22.2475 -22.2239 -22.2239 -22.0657 -22.0657
    -6.9376  -6.9376  -6.6250  -6.6250  -5.5886  -5.5886  -5.1626  -5.1626
    -4.5067  -4.5067   0.0430   0.0430   0.5011   0.5011   1.0572   1.0572
     1.5691   1.5691   2.0710   2.0710   2.4394   2.4394   2.8289   2.8289
     3.0034   3.0034   3.2159   3.2159   3.5952   3.5952   3.9134   3.9134
     4.0816   4.0816   6.2275   6.2275   6.4890   6.4890   7.0794   7.0794
     7.4528   7.4528

          k =-0.5081-0.2579 0.0000 ( 36480 PWs)   bands (ev):

   -44.1378 -44.1378 -22.2523 -22.2523 -22.2008 -22.2008 -22.0685 -22.0684
    -7.5467  -7.2928  -6.9008  -6.7480  -5.9655  -5.2545  -5.0313  -4.6648
    -4.5961  -4.4641   0.2072   0.5570   0.6658   1.1424   1.1859   1.4190
     1.6425   1.7300   1.9065   2.0808   2.1490   2.3605   2.4954   3.3960
     3.4276   3.5138   3.5575   3.6467   3.7256   3.7606   3.9956   4.1169
     4.3421   4.9681   5.7001   6.1088   6.1795   6.6977   6.7499   6.9159
     7.4175   7.5158

          k =-0.5081-0.2579 0.1485 ( 36485 PWs)   bands (ev):

   -44.1378 -44.1378 -22.2523 -22.2523 -22.2008 -22.2008 -22.0684 -22.0684
    -7.5194  -7.3464  -6.8630  -6.7617  -5.8958  -5.4483  -4.8809  -4.6374
    -4.6271  -4.4826   0.2510   0.5608   0.7576   0.9263   1.2072   1.3325
     1.4972   1.6329   2.0037   2.0728   2.3481   2.5079   2.8344   3.3232
     3.4433   3.4928   3.5238   3.6221   3.6320   3.7612   3.8809   4.1589
     4.2655   4.5031   6.1901   6.2302   6.3441   6.7009   6.7781   6.7987
     7.2467   7.4956

          k =-0.5081-0.2579-0.2971 ( 36478 PWs)   bands (ev):

   -44.1378 -44.1378 -22.2523 -22.2523 -22.2008 -22.2008 -22.0684 -22.0684
    -7.4441  -7.4441  -6.8023  -6.8023  -5.7057  -5.7057  -4.7307  -4.7307
    -4.5475  -4.5475   0.3995   0.3995   0.9878   0.9878   1.0226   1.0226
     1.5352   1.5352   2.0427   2.0427   2.7088   2.7088   3.1683   3.1683
     3.3797   3.3797   3.5291   3.5291   3.6952   3.6952   3.8800   3.8800
     4.2794   4.2794   6.3993   6.3993   6.6442   6.6442   6.8244   6.8244
     7.1947   7.1947

          k =-0.2541-0.1934 0.0000 ( 36410 PWs)   bands (ev):

   -44.1387 -44.1387 -22.2570 -22.2570 -22.1776 -22.1776 -22.0712 -22.0710
    -7.9022  -7.6392  -7.0569  -6.8691  -6.1489  -5.3697  -4.8666  -4.7747
    -4.7059  -3.9725   0.3905   0.8885   0.9962   1.0991   1.2828   1.5023
     1.6623   1.7794   1.8338   2.5498   2.5987   3.2345   3.2905   3.6794
     3.7237   3.7252   3.8272   3.8684   3.9078   4.1933   4.3097   4.3299
     4.3625   4.6121   5.9344   6.0149   6.2604   6.5517   6.6062   6.7184
     7.0041   7.1251

          k =-0.2541-0.1934 0.1485 ( 36427 PWs)   bands (ev):

   -44.1387 -44.1387 -22.2570 -22.2570 -22.1776 -22.1776 -22.0712 -22.0711
    -7.8734  -7.6929  -7.0120  -6.8858  -6.0771  -5.5766  -4.7931  -4.7209
    -4.6165  -4.0608   0.4519   0.8892   0.9387   1.0475   1.2373   1.3274
     1.7442   1.8594   2.1819   2.5486   2.5832   2.9446   3.4018   3.4365
     3.5450   3.7216   3.8247   3.9043   4.0001   4.1585   4.3280   4.3379
     4.6710   4.7924   5.8625   6.0014   6.1447   6.3208   6.4287   6.7739
     7.1740   7.2615

          k =-0.2541-0.1934-0.2971 ( 36422 PWs)   bands (ev):

   -44.1387 -44.1387 -22.2570 -22.2570 -22.1776 -22.1776 -22.0711 -22.0711
    -7.7941  -7.7941  -6.9364  -6.9364  -5.8708  -5.8708  -4.7548  -4.7548
    -4.3000  -4.3000   0.6325   0.6325   1.0632   1.0632   1.1521   1.1521
     1.9319   1.9319   2.4817   2.4817   2.6595   2.6595   3.2478   3.2478
     3.6570   3.6570   3.8339   3.8339   4.1180   4.1180   4.3389   4.3389
     4.9843   4.9843   5.7607   5.7607   6.1788   6.1788   6.5099   6.5099
     7.3689   7.3689

          k = 0.0000-0.1290 0.0000 ( 36417 PWs)   bands (ev):

   -44.1391 -44.1391 -22.2589 -22.2589 -22.1680 -22.1680 -22.0723 -22.0722
    -8.0263  -7.7580  -7.1254  -6.9160  -6.2051  -5.4163  -4.8356  -4.8124
    -4.7529  -3.8058   0.2996   0.7677   0.8432   1.1520   1.3834   1.5665
     2.0794   2.2654   2.2882   2.7842   2.9252   3.0037   3.3282   3.3569
     3.7328   3.8621   3.9075   4.0126   4.2860   4.3051   4.3599   4.7049
     4.7480   5.3873   5.6583   5.8924   5.9546   5.9555   6.0708   6.7996
     7.0364   7.2300

          k = 0.0000-0.1290 0.1485 ( 36419 PWs)   bands (ev):

   -44.1391 -44.1391 -22.2589 -22.2589 -22.1680 -22.1680 -22.0723 -22.0722
    -7.9969  -7.8127  -7.0757  -6.9344  -6.1350  -5.6282  -4.8169  -4.7661
    -4.5805  -3.9180   0.3731   0.8760   0.9173   0.9745   1.1187   1.8844
     2.0485   2.1007   2.2295   2.8144   2.9111   3.0859   3.3781   3.4642
     3.7439   3.8894   3.9174   3.9978   4.2322   4.3143   4.3751   4.7015
     4.7208   4.9240   5.8503   5.9264   5.9545   6.1172   6.4089   6.6265
     6.8530   7.1260

          k = 0.0000-0.1290-0.2971 ( 36464 PWs)   bands (ev):

   -44.1391 -44.1391 -22.2589 -22.2589 -22.1680 -22.1680 -22.0722 -22.0722
    -7.9159  -7.9159  -6.9909  -6.9909  -5.9289  -5.9289  -4.7914  -4.7914
    -4.2102  -4.2102   0.6006   0.6006   0.9781   0.9781   1.3508   1.3508
     2.1585   2.1585   2.6095   2.6095   2.8702   2.8702   3.5567   3.5567
     3.8542   3.8542   4.0647   4.0647   4.2440   4.2440   4.4073   4.4073
     4.6999   4.6999   5.9238   5.9238   6.2385   6.2385   6.4785   6.4785
     6.8698   6.8698

          k = 1.0162 0.0000 0.0000 ( 36499 PWs)   bands (ev):

   -44.1366 -44.1366 -22.2454 -22.2454 -22.2335 -22.2335 -22.0646 -22.0646
    -6.7358  -6.7154  -6.1270  -6.1165  -6.0919  -6.0861  -5.2535  -5.2530
    -4.4724  -4.4446  -0.0916  -0.0509   0.2243   0.2580   0.9997   1.0328
     1.4811   1.6438   2.2189   2.3984   2.4052   2.4156   2.7760   2.8158
     2.8234   2.9003   3.2146   3.2376   3.2697   3.3481   3.5822   3.5827
     3.8459   4.1826   6.6149   6.6510   6.7143   6.7168   7.1384   7.1756
     7.1778   7.1817

          k = 1.0162 0.0000 0.1485 ( 36485 PWs)   bands (ev):

   -44.1366 -44.1366 -22.2454 -22.2454 -22.2335 -22.2335 -22.0646 -22.0646
    -6.7316  -6.7170  -6.1536  -6.1463  -6.0641  -6.0599  -5.2515  -5.2511
    -4.4711  -4.4514  -0.1817  -0.1680   0.4388   0.4406   1.0068   1.0195
     1.4741   1.5805   2.0642   2.1115   2.3669   2.3875   2.6287   2.7363
     2.9469   3.0661   3.0820   3.1752   3.5065   3.5796   3.6547   3.7169
     4.0079   4.2261   6.1385   6.1851   6.5302   6.6184   7.1868   7.1884
     7.4190   7.4212

          k = 1.0162 0.0000-0.2971 ( 36514 PWs)   bands (ev):

   -44.1366 -44.1366 -22.2454 -22.2454 -22.2335 -22.2335 -22.0646 -22.0646
    -6.7230  -6.7230  -6.1665  -6.1665  -6.0465  -6.0465  -5.2492  -5.2492
    -4.4640  -4.4640  -0.2374  -0.2374   0.6459   0.6459   0.9663   0.9663
     1.5153   1.5153   1.8602   1.8602   2.3468   2.3468   2.7341   2.7341
     2.9279   2.9279   3.1477   3.1477   3.6405   3.6405   3.7966   3.7966
     4.3240   4.3240   5.7582   5.7582   6.4825   6.4825   7.2038   7.2038
     7.5135   7.5135

          k = 1.2703 0.0645 0.0000 ( 36468 PWs)   bands (ev):

   -44.1369 -44.1369 -22.2475 -22.2475 -22.2239 -22.2239 -22.0657 -22.0657
    -7.0171  -6.7611  -6.7496  -6.5859  -5.7376  -5.4569  -5.1744  -5.1357
    -4.5422  -4.4786  -0.1164   0.0270   0.3380   0.9074   0.9965   1.2577
     1.5067   1.7143   2.1167   2.1447   2.2403   2.3229   2.4268   2.8667
     2.9573   3.1826   3.3703   3.4866   3.5032   3.5934   3.6121   3.7017
     4.0213   4.4800   6.0382   6.4033   6.5155   6.7530   6.9910   7.1144
     7.2907   7.5873

          k = 1.2703 0.0645 0.1485 ( 36490 PWs)   bands (ev):

   -44.1369 -44.1369 -22.2475 -22.2475 -22.2239 -22.2239 -22.0657 -22.0657
    -6.9945  -6.8444  -6.6833  -6.5979  -5.6925  -5.4922  -5.1749  -5.1445
    -4.5305  -4.4863  -0.0937   0.1730   0.2332   0.8616   0.9267   1.2083
     1.5408   1.6317   1.9589   2.2075   2.2479   2.5982   2.6419   2.9141
     2.9336   3.1046   3.1925   3.3273   3.4736   3.5445   3.7644   3.8325
     4.0088   4.4902   5.7892   6.4629   6.6420   6.8190   6.9452   7.1191
     7.1709   7.5440

          k = 1.2703 0.0645-0.2971 ( 36480 PWs)   bands (ev):

   -44.1369 -44.1369 -22.2475 -22.2475 -22.2239 -22.2239 -22.0657 -22.0657
    -6.9317  -6.9317  -6.6314  -6.6314  -5.5883  -5.5883  -5.1637  -5.1637
    -4.5065  -4.5065   0.0351   0.0351   0.5075   0.5075   1.0424   1.0424
     1.5753   1.5753   2.1039   2.1039   2.4790   2.4790   2.8273   2.8273
     3.0225   3.0225   3.1579   3.1579   3.5897   3.5897   3.8873   3.8873
     4.1050   4.1050   6.2057   6.2057   6.4874   6.4874   7.1210   7.1210
     7.4089   7.4089

          k =-0.5081-0.3869 0.0000 ( 36463 PWs)   bands (ev):

   -44.1378 -44.1378 -22.2523 -22.2523 -22.2008 -22.2008 -22.0685 -22.0684
    -7.5394  -7.2916  -6.9008  -6.7527  -5.9736  -5.2550  -5.0377  -4.6705
    -4.5874  -4.4652   0.1958   0.5675   0.6622   1.1418   1.1958   1.5389
     1.6515   1.7445   1.9426   2.0612   2.1752   2.3634   2.4866   3.2871
     3.4545   3.5048   3.5296   3.6522   3.6929   3.7270   3.9270   4.1151
     4.3295   4.9789   5.6903   6.0213   6.2466   6.8048   6.8304   6.8790
     7.3560   7.4905

          k =-0.5081-0.3869 0.1485 ( 36477 PWs)   bands (ev):

   -44.1378 -44.1378 -22.2523 -22.2523 -22.2008 -22.2008 -22.0684 -22.0684
    -7.5125  -7.3433  -6.8654  -6.7667  -5.9020  -5.4494  -4.8898  -4.6344
    -4.6290  -4.4794   0.2439   0.5750   0.7526   0.9142   1.2088   1.3510
     1.6108   1.7054   1.9816   2.0502   2.3707   2.5264   2.8370   3.2297
     3.4563   3.4700   3.5069   3.5567   3.6439   3.7428   3.8852   4.1156
     4.2146   4.5212   6.1417   6.2616   6.3178   6.7114   6.8051   6.9127
     7.1791   7.4859

          k =-0.5081-0.3869-0.2971 ( 36492 PWs)   bands (ev):

   -44.1378 -44.1378 -22.2523 -22.2523 -22.2008 -22.2008 -22.0684 -22.0684
    -7.4385  -7.4385  -6.8073  -6.8073  -5.7087  -5.7087  -4.7388  -4.7388
    -4.5418  -4.5418   0.4021   0.4021   0.9813   0.9813   1.0190   1.0190
     1.6459   1.6459   2.0151   2.0151   2.7495   2.7495   3.1150   3.1150
     3.3685   3.3685   3.4904   3.4904   3.6816   3.6816   3.8863   3.8863
     4.2402   4.2402   6.3665   6.3665   6.6884   6.6884   6.8065   6.8065
     7.2177   7.2177

          k =-0.2541-0.3224 0.0000 ( 36485 PWs)   bands (ev):

   -44.1387 -44.1387 -22.2570 -22.2570 -22.1776 -22.1776 -22.0712 -22.0710
    -7.8952  -7.6380  -7.0511  -6.8732  -6.1664  -5.3737  -4.8826  -4.7749
    -4.6947  -3.9737   0.4159   0.8987   1.0899   1.1136   1.3311   1.5737
     1.6995   1.7803   1.8708   2.4806   2.5557   3.2254   3.3896   3.5332
     3.6040   3.6968   3.7172   3.8418   3.9516   4.1366   4.1731   4.2817
     4.3138   4.6457   6.0244   6.0501   6.3272   6.5662   6.6258   6.7868
     6.9263   7.0488

          k =-0.2541-0.3224 0.1485 ( 36445 PWs)   bands (ev):

   -44.1387 -44.1387 -22.2570 -22.2570 -22.1776 -22.1776 -22.0712 -22.0711
    -7.8668  -7.6899  -7.0096  -6.8897  -6.0916  -5.5813  -4.8122  -4.7147
    -4.6099  -4.0609   0.4759   0.8956   0.9514   1.1696   1.3081   1.3546
     1.7650   1.8648   2.2308   2.4837   2.5446   2.9449   3.4072   3.4935
     3.5256   3.5573   3.6569   3.9016   3.9272   4.1009   4.2424   4.2988
     4.6795   4.7962   5.8570   6.0334   6.1460   6.3701   6.5262   6.7620
     7.1406   7.2444

          k =-0.2541-0.3224-0.2971 ( 36442 PWs)   bands (ev):

   -44.1387 -44.1387 -22.2570 -22.2570 -22.1776 -22.1776 -22.0711 -22.0711
    -7.7888  -7.7888  -6.9386  -6.9386  -5.8794  -5.8794  -4.7605  -4.7605
    -4.2975  -4.2975   0.6514   0.6514   1.0923   1.0923   1.2394   1.2394
     1.9421   1.9421   2.4611   2.4611   2.6582   2.6582   3.2622   3.2622
     3.5218   3.5218   3.8014   3.8014   4.0614   4.0614   4.2780   4.2780
     5.0036   5.0036   5.7261   5.7261   6.1810   6.1810   6.5920   6.5920
     7.3545   7.3545

          k = 0.0000-0.2579 0.0000 ( 36445 PWs)   bands (ev):

   -44.1391 -44.1391 -22.2589 -22.2589 -22.1680 -22.1680 -22.0723 -22.0722
    -8.0200  -7.7568  -7.1178  -6.9197  -6.2241  -5.4216  -4.8626  -4.8044
    -4.7390  -3.8070   0.3333   0.7774   0.9526   1.2027   1.4097   1.6322
     2.0797   2.2639   2.2863   2.8018   2.9309   3.0197   3.2923   3.4632
     3.5182   3.6547   3.8347   3.9553   4.1573   4.2276   4.3055   4.7029
     4.7188   5.3473   5.7091   5.9523   5.9734   6.0356   6.1568   6.7982
     7.0364   7.1347

          k = 0.0000-0.2579 0.1485 ( 36452 PWs)   bands (ev):

   -44.1391 -44.1391 -22.2589 -22.2589 -22.1680 -22.1680 -22.0723 -22.0722
    -7.9910  -7.8100  -7.0714  -6.9376  -6.1511  -5.6342  -4.8348  -4.7586
    -4.5764  -3.9183   0.4057   0.9277   0.9708   1.0304   1.1727   1.8969
     2.0909   2.1009   2.2287   2.8299   2.9183   3.0902   3.3323   3.4629
     3.6508   3.6702   3.8918   3.9084   4.1892   4.2237   4.2531   4.6982
     4.7038   4.9173   5.8913   5.9811   6.0203   6.1314   6.4359   6.6203
     6.8555   7.0655

          k = 0.0000-0.2579-0.2971 ( 36454 PWs)   bands (ev):

   -44.1391 -44.1391 -22.2589 -22.2589 -22.1680 -22.1680 -22.0722 -22.0722
    -7.9112  -7.9112  -6.9917  -6.9917  -5.9391  -5.9391  -4.7961  -4.7961
    -4.2086  -4.2086   0.6353   0.6353   1.0608   1.0608   1.3662   1.3662
     2.1584   2.1584   2.6374   2.6374   2.8812   2.8812   3.4458   3.4458
     3.7776   3.7776   4.0448   4.0448   4.1200   4.1200   4.3730   4.3730
     4.6939   4.6939   5.9578   5.9578   6.2703   6.2703   6.4861   6.4861
     6.8433   6.8433

          k = 1.5243 0.0000 0.0000 ( 36439 PWs)   bands (ev):

   -44.1378 -44.1378 -22.2523 -22.2523 -22.2008 -22.2008 -22.0685 -22.0684
    -7.5364  -7.2911  -6.9010  -6.7543  -5.9770  -5.2553  -5.0404  -4.6723
    -4.5844  -4.4657   0.1911   0.5731   0.6581   1.1444   1.1999   1.6054
     1.6757   1.7112   1.9582   2.0524   2.2186   2.3334   2.4817   3.2469
     3.4598   3.4697   3.5359   3.6517   3.7039   3.7446   3.8425   4.1372
     4.3237   4.9823   5.6867   5.9839   6.2777   6.7944   6.8547   6.9390
     7.3139   7.5303

          k = 1.5243 0.0000 0.1485 ( 36476 PWs)   bands (ev):

   -44.1378 -44.1378 -22.2523 -22.2523 -22.2008 -22.2008 -22.0684 -22.0684
    -7.5096  -7.3419  -6.8666  -6.7687  -5.9046  -5.4499  -4.8935  -4.6328
    -4.6302  -4.4781   0.2410   0.5809   0.7500   0.9092   1.2111   1.3574
     1.6881   1.7178   1.9768   2.0273   2.3985   2.5125   2.8374   3.1940
     3.4104   3.4761   3.5042   3.5636   3.6638   3.7280   3.8582   4.1395
     4.1710   4.5284   6.1165   6.2767   6.3113   6.6817   6.8442   6.9830
     7.1336   7.5035

          k = 1.5243 0.0000-0.2971 ( 36508 PWs)   bands (ev):

   -44.1378 -44.1378 -22.2523 -22.2523 -22.2008 -22.2008 -22.0684 -22.0684
    -7.4362  -7.4362  -6.8094  -6.8094  -5.7099  -5.7099  -4.7421  -4.7421
    -4.5395  -4.5395   0.4031   0.4031   0.9786   0.9786   1.0178   1.0178
     1.7035   1.7035   1.9935   1.9935   2.7739   2.7739   3.0724   3.0724
     3.3697   3.3697   3.4793   3.4793   3.6779   3.6779   3.8858   3.8858
     4.2267   4.2267   6.3532   6.3532   6.6881   6.6881   6.8132   6.8132
     7.2355   7.2355

          k =-0.2541-0.4514 0.0000 ( 36444 PWs)   bands (ev):

   -44.1387 -44.1387 -22.2570 -22.2570 -22.1776 -22.1776 -22.0712 -22.0710
    -7.8902  -7.6371  -7.0476  -6.8752  -6.1791  -5.3765  -4.8937  -4.7725
    -4.6894  -3.9746   0.4275   0.9079   1.0813   1.2365   1.3419   1.6575
     1.7266   1.7797   1.9070   2.4055   2.4834   3.2404   3.3856   3.4646
     3.4755   3.7163   3.7524   3.8413   3.8966   4.0885   4.1058   4.2130
     4.3118   4.6671   6.0680   6.0999   6.3543   6.5781   6.6496   6.8292
     6.8359   7.0196

          k =-0.2541-0.4514 0.1485 ( 36461 PWs)   bands (ev):

   -44.1387 -44.1387 -22.2570 -22.2570 -22.1776 -22.1776 -22.0712 -22.0711
    -7.8620  -7.6878  -7.0083  -6.8919  -6.1019  -5.5846  -4.8240  -4.7115
    -4.6059  -4.0609   0.4868   0.9035   0.9550   1.2811   1.3421   1.4051
     1.7940   1.8679   2.2809   2.4118   2.4673   2.9609   3.3428   3.3874
     3.5031   3.5434   3.7357   3.8675   3.9013   3.9684   4.2237   4.2715
     4.6925   4.7949   5.8540   6.0527   6.1573   6.3729   6.5931   6.7412
     7.1349   7.2304

          k =-0.2541-0.4514-0.2971 ( 36490 PWs)   bands (ev):

   -44.1387 -44.1387 -22.2570 -22.2570 -22.1776 -22.1776 -22.0711 -22.0711
    -7.7850  -7.7850  -6.9402  -6.9402  -5.8855  -5.8855  -4.7646  -4.7646
    -4.2958  -4.2958   0.6599   0.6599   1.1025   1.1025   1.3356   1.3356
     1.9540   1.9540   2.4183   2.4183   2.6599   2.6599   3.2531   3.2531
     3.4102   3.4102   3.8508   3.8508   3.9860   3.9860   4.2479   4.2479
     5.0172   5.0172   5.7052   5.7052   6.1695   6.1695   6.6434   6.6434
     7.3479   7.3479

          k = 0.0000-0.3869 0.0000 ( 36477 PWs)   bands (ev):

   -44.1391 -44.1391 -22.2589 -22.2589 -22.1680 -22.1680 -22.0723 -22.0722
    -8.0137  -7.7557  -7.1109  -6.9222  -6.2437  -5.4267  -4.8837  -4.7951
    -4.7322  -3.8082   0.3556   0.7882   1.1010   1.2646   1.4343   1.7048
     2.0799   2.2624   2.2864   2.8208   2.9360   3.0490   3.1541   3.2221
     3.5328   3.6198   3.8068   3.9541   4.0156   4.0518   4.3058   4.6900
     4.7011   5.3234   5.7603   5.9925   6.0262   6.0859   6.2145   6.7433
     7.0364   7.0795

          k = 0.0000-0.3869 0.1485 ( 36452 PWs)   bands (ev):

   -44.1391 -44.1391 -22.2589 -22.2589 -22.1680 -22.1680 -22.0723 -22.0722
    -7.9850  -7.8073  -7.0677  -6.9401  -6.1675  -5.6400  -4.8498  -4.7536
    -4.5728  -3.9185   0.4259   0.9482   1.0113   1.1666   1.2484   1.9117
     2.1011   2.1350   2.2279   2.8465   2.9252   3.0371   3.1691   3.3332
     3.5272   3.7327   3.8656   3.9226   4.0589   4.0951   4.2144   4.6855
     4.6971   4.9158   5.9410   6.0257   6.0545   6.1459   6.4509   6.5825
     6.8580   7.0196

          k = 0.0000-0.3869-0.2971 ( 36454 PWs)   bands (ev):

   -44.1391 -44.1391 -22.2589 -22.2589 -22.1680 -22.1680 -22.0722 -22.0722
    -7.9064  -7.9064  -6.9926  -6.9926  -5.9493  -5.9493  -4.8010  -4.8010
    -4.2070  -4.2070   0.6552   0.6552   1.1814   1.1814   1.3839   1.3839
     2.1583   2.1583   2.6594   2.6594   2.8927   2.8927   3.2114   3.2114
     3.8239   3.8239   4.0085   4.0085   4.0243   4.0243   4.3407   4.3407
     4.6883   4.6883   5.9689   5.9689   6.2985   6.2985   6.4939   6.4939
     6.8076   6.8076

          k =-2.0325 0.0000 0.0000 ( 36452 PWs)   bands (ev):

   -44.1391 -44.1391 -22.2589 -22.2589 -22.1680 -22.1680 -22.0723 -22.0722
    -8.0111  -7.7553  -7.1083  -6.9229  -6.2520  -5.4288  -4.8915  -4.7909
    -4.7307  -3.8087   0.3616   0.7929   1.2259   1.2385   1.4439   1.7486
     2.0800   2.2618   2.2872   2.8292   2.9378   3.0414   3.0658   3.1035
     3.5200   3.7716   3.7951   3.8667   3.9556   3.9792   4.3059   4.6781
     4.7004   5.3159   5.7812   6.0004   6.0651   6.1017   6.2325   6.6993
     7.0363   7.0698

          k =-2.0325 0.0000 0.1485 ( 36456 PWs)   bands (ev):

   -44.1391 -44.1391 -22.2589 -22.2589 -22.1680 -22.1680 -22.0723 -22.0722
    -7.9825  -7.8062  -7.0664  -6.9408  -6.1743  -5.6424  -4.8556  -4.7520
    -4.5714  -3.9186   0.4309   0.9564   1.0249   1.2473   1.2812   1.9186
     2.1012   2.1569   2.2275   2.8537   2.9279   2.9692   3.0503   3.3193
     3.5013   3.8282   3.8546   3.9394   3.9650   4.0114   4.2103   4.6788
     4.6960   4.9158   5.9654   6.0457   6.0598   6.1520   6.4540   6.5556
     6.8591   7.0063

          k =-2.0325 0.0000-0.2971 ( 36460 PWs)   bands (ev):

   -44.1391 -44.1391 -22.2589 -22.2589 -22.1680 -22.1680 -22.0722 -22.0722
    -7.9044  -7.9044  -6.9929  -6.9929  -5.9534  -5.9534  -4.8030  -4.8030
    -4.2063  -4.2063   0.6600   0.6600   1.2446   1.2446   1.3925   1.3925
     2.1583   2.1583   2.6616   2.6616   2.8975   2.8975   3.1045   3.1045
     3.8927   3.8927   3.9235   3.9235   4.0156   4.0156   4.3293   4.3293
     4.6861   4.6861   5.9693   5.9693   6.3085   6.3085   6.4972   6.4972
     6.7916   6.7916

     the Fermi energy is     5.4396 ev

!    total energy              =   -4240.95007632 Ry

     total all-electron energy =   -150287.643771 Ry
     estimated scf accuracy    <          8.0E-12 Ry
     smearing contrib. (-TS)   =       0.00000273 Ry
     internal energy E=F+TS    =   -4240.95007904 Ry

     The total energy is F=E-TS. E is the sum of the following terms:
     one-electron contribution =    -167.71230399 Ry
     hartree contribution      =     117.32405157 Ry
     xc contribution           =    -201.54958418 Ry
     ewald contribution        =    -221.48401579 Ry
     one-center paw contrib.   =   -3767.52822665 Ry

     convergence has been achieved in  18 iterations

     Forces acting on atoms (cartesian axes, Ry/au):

     atom    1 type  1   force =     0.00000000    0.00836566    0.00000000
     atom    2 type  1   force =     0.00000000   -0.00836566    0.00000000
     atom    3 type  2   force =     0.00000000   -0.00002583    0.00000000
     atom    4 type  2   force =     0.00000000    0.00002583    0.00000000
     atom    5 type  2   force =     0.00000000   -0.00191779   -0.00084018
     atom    6 type  2   force =     0.00000000    0.00191779    0.00084018
     atom    7 type  2   force =     0.00000000   -0.00191779    0.00084018
     atom    8 type  2   force =     0.00000000    0.00191779   -0.00084018
     atom    9 type  2   force =     0.00000000   -0.01380235   -0.01505604
     atom   10 type  2   force =     0.00000000    0.01380235    0.01505604
     atom   11 type  2   force =     0.00000000   -0.01380235    0.01505604
     atom   12 type  2   force =     0.00000000    0.01380235   -0.01505604

     Total force =     0.042735     Total SCF correction =     0.000003


     Computing stress (Cartesian axis) and pressure

          total   stress  (Ry/bohr**3)                   (kbar)     P=        3.47
   0.00002280  -0.00000000   0.00000000            3.35       -0.00        0.00
  -0.00000000   0.00001563   0.00000000           -0.00        2.30        0.00
   0.00000000   0.00000000   0.00003225            0.00        0.00        4.74

 
     init_run     :     35.79s CPU     37.01s WALL (       1 calls)
     electrons    :   1734.57s CPU   1752.40s WALL (       1 calls)
     forces       :      7.52s CPU      7.81s WALL (       1 calls)
     stress       :     44.64s CPU     45.26s WALL (       1 calls)

     Called by init_run:
     wfcinit      :     31.05s CPU     31.34s WALL (       1 calls)
     potinit      :      1.39s CPU      1.45s WALL (       1 calls)
     hinit0       :      1.71s CPU      2.32s WALL (       1 calls)

     Called by electrons:
     c_bands      :   1397.70s CPU   1404.88s WALL (      19 calls)
     sum_band     :    300.94s CPU    306.99s WALL (      19 calls)
     v_of_rho     :      8.95s CPU      9.61s WALL (      19 calls)
     newd         :     19.04s CPU     23.16s WALL (      19 calls)
     PAW_pot      :      7.21s CPU      7.22s WALL (      19 calls)
     mix_rho      :      1.67s CPU      1.72s WALL (      19 calls)

     Called by c_bands:
     init_us_2    :     14.20s CPU     14.26s WALL (    2583 calls)
     cegterg      :   1317.23s CPU   1323.70s WALL (    1197 calls)

     Called by *egterg:
     cdiaghg      :     27.98s CPU     28.11s WALL (    8030 calls)
     h_psi        :   1142.51s CPU   1148.73s WALL (    8156 calls)
     s_psi        :     51.40s CPU     51.47s WALL (    8156 calls)
     g_psi        :      2.17s CPU      2.19s WALL (    6896 calls)

     Called by h_psi:
     h_psi:calbec :     43.02s CPU     43.11s WALL (    8156 calls)
     vloc_psi     :   1044.35s CPU   1050.33s WALL (    8156 calls)
     add_vuspsi   :     51.10s CPU     51.17s WALL (    8156 calls)

     General routines
     calbec       :     57.82s CPU     57.96s WALL (    9668 calls)
     fft          :      8.18s CPU      8.99s WALL (     271 calls)
     ffts         :      0.21s CPU      0.21s WALL (      38 calls)
     fftw         :   1072.75s CPU   1078.59s WALL (  419954 calls)
     interpolate  :      0.67s CPU      0.67s WALL (      19 calls)
 
     Parallel routines
     fft_scatt_xy :    247.82s CPU    249.30s WALL (  420263 calls)
     fft_scatt_yz :    321.00s CPU    322.84s WALL (  420263 calls)
 
     PWSCF        :  30m22.96s CPU  30m48.89s WALL

 
   This run was terminated on:  15:17: 5  19Nov2021            

=------------------------------------------------------------------------------=
   JOB DONE.
=------------------------------------------------------------------------------=
