
     Program PWSCF v.6.7MaX starts on 19Nov2021 at 14:46:16 

     This program is part of the open-source Quantum ESPRESSO suite
     for quantum simulation of materials; please cite
         "P. Giannozzi et al., J. Phys.:Condens. Matter 21 395502 (2009);
         "P. Giannozzi et al., J. Phys.:Condens. Matter 29 465901 (2017);
          URL http://www.quantum-espresso.org", 
     in publications or presentations arising from this work. More details at
     http://www.quantum-espresso.org/quote

     Parallel version (MPI), running on    10 processors

     MPI processes distributed on     1 nodes
     R & G space division:  proc/nbgrp/npool/nimage =      10
     Waiting for input...
     Reading input from standard input

     Current dimensions of program PWSCF are:
     Max number of different atomic species (ntypx) = 10
     Max number of k-points (npk) =  40000
     Max angular momentum in pseudopotentials (lmaxx) =  3
     file Zr.pbe-spn-kjpaw_psl.1.0.0.UPF: wavefunction(s)  4S 4P renormalized
     file Te.pbe-n-kjpaw_psl.1.0.0.UPF: wavefunction(s)  5S 5P renormalized

     Subspace diagonalization in iterative solution of the eigenvalue problem:
     a serial algorithm will be used

     Message from routine setup:
     using ibrav=0 with symmetry is DISCOURAGED, use correct ibrav instead
 
     Parallelization info
     --------------------
     sticks:   dense  smooth     PW     G-vecs:    dense   smooth      PW
     Min         734     293     87               115340    29174    4753
     Max         735     295     88               115345    29176    4760
     Sum        7345    2937    873              1153415   291749   47557
 


     bravais-lattice index     =            0
     lattice parameter (alat)  =      15.5510  a.u.
     unit-cell volume          =    3018.5011 (a.u.)^3
     number of atoms/cell      =           12
     number of atomic types    =            2
     number of electrons       =        84.00
     number of Kohn-Sham states=           50
     kinetic-energy cutoff     =      80.0000  Ry
     charge density cutoff     =     800.0000  Ry
     scf convergence threshold =      1.0E-10
     mixing beta               =       0.7000
     number of iterations used =            8  plain     mixing
     Exchange-correlation= SLA  PW   PBX  PBC
                           (   1   4   3   4   0   0   0)

     celldm(1)=  15.551040  celldm(2)=   0.000000  celldm(3)=   0.000000
     celldm(4)=   0.000000  celldm(5)=   0.000000  celldm(6)=   0.000000

     crystal axes: (cart. coord. in units of alat)
               a(1) = (   0.246007  -0.969268   0.000000 )  
               a(2) = (   0.246007   0.969268   0.000000 )  
               a(3) = (   0.000000   0.000000   1.683031 )  

     reciprocal axes: (cart. coord. in units 2 pi/alat)
               b(1) = (  2.032465 -0.515853  0.000000 )  
               b(2) = (  2.032465  0.515853  0.000000 )  
               b(3) = (  0.000000  0.000000  0.594166 )  


     PseudoPot. # 1 for Zr read from file:
     pseudo/Zr.pbe-spn-kjpaw_psl.1.0.0.UPF
     MD5 check sum: 02112c41713a0468aff2bb39ef194e36
     Pseudo is Projector augmented-wave + core cor, Zval = 12.0
     Generated using &quot;atomic&quot; code by A. Dal Corso  v.6.2.2
     Shape of augmentation charge: PSQ
     Using radial grid of 1225 points,  6 beta functions with: 
                l(1) =   0
                l(2) =   0
                l(3) =   1
                l(4) =   1
                l(5) =   2
                l(6) =   2
     Q(r) pseudized with 0 coefficients 


     PseudoPot. # 2 for Te read from file:
     pseudo/Te.pbe-n-kjpaw_psl.1.0.0.UPF
     MD5 check sum: 66247bff2bd9dbf220fbb0bf5ab56e9d
     Pseudo is Projector augmented-wave + core cor, Zval =  6.0
     Generated using &quot;atomic&quot; code by A. Dal Corso  v.6.3
     Shape of augmentation charge: PSQ
     Using radial grid of 1245 points,  6 beta functions with: 
                l(1) =   0
                l(2) =   0
                l(3) =   1
                l(4) =   1
                l(5) =   2
                l(6) =   2
     Q(r) pseudized with 0 coefficients 


     atomic species   valence    mass     pseudopotential
        Zr            12.00    91.22000     Zr( 1.00)
        Te             6.00   127.60000     Te( 1.00)

      8 Sym. Ops., with inversion, found ( 4 have fractional translation)



   Cartesian axes

     site n.     atom                  positions (alat units)
         1           Zr  tau(   1) = (   0.0000000   0.6029639   0.4207578  )
         2           Zr  tau(   2) = (   0.2460067   0.3663042   1.2622733  )
         3           Te  tau(   3) = (   0.2460067   0.3341953   0.4207578  )
         4           Te  tau(   4) = (   0.0000000   0.6350729   1.2622733  )
         5           Te  tau(   5) = (   0.2460067   0.8110291   0.2528848  )
         6           Te  tau(   6) = (   0.0000000   0.1582390   1.4301463  )
         7           Te  tau(   7) = (   0.2460067   0.8110291   0.5886308  )
         8           Te  tau(   8) = (   0.0000000   0.1582390   1.0944003  )
         9           Te  tau(   9) = (   0.0000000   0.4195230   0.7353008  )
        10           Te  tau(  10) = (   0.2460067   0.5497451   0.9477302  )
        11           Te  tau(  11) = (   0.0000000   0.4195230   0.1062147  )
        12           Te  tau(  12) = (   0.2460067   0.5497451   1.5768163  )

     number of k points=    63  Methfessel-Paxton smearing, width (Ry)=  0.0030
                       cart. coord. in units 2pi/alat
        k(    1) = (   0.0000000   0.0000000   0.0000000), wk =   0.0078125
        k(    2) = (   0.0000000   0.0000000   0.1485415), wk =   0.0156250
        k(    3) = (   0.0000000   0.0000000  -0.2970830), wk =   0.0078125
        k(    4) = (   0.2540581   0.0644816   0.0000000), wk =   0.0312500
        k(    5) = (   0.2540581   0.0644816   0.1485415), wk =   0.0625000
        k(    6) = (   0.2540581   0.0644816  -0.2970830), wk =   0.0312500
        k(    7) = (   0.5081162   0.1289633   0.0000000), wk =   0.0312500
        k(    8) = (   0.5081162   0.1289633   0.1485415), wk =   0.0625000
        k(    9) = (   0.5081162   0.1289633  -0.2970830), wk =   0.0312500
        k(   10) = (   0.7621743   0.1934449   0.0000000), wk =   0.0312500
        k(   11) = (   0.7621743   0.1934449   0.1485415), wk =   0.0625000
        k(   12) = (   0.7621743   0.1934449  -0.2970830), wk =   0.0312500
        k(   13) = (  -1.0162324  -0.2579266   0.0000000), wk =   0.0156250
        k(   14) = (  -1.0162324  -0.2579266   0.1485415), wk =   0.0312500
        k(   15) = (  -1.0162324  -0.2579266  -0.2970830), wk =   0.0156250
        k(   16) = (   0.5081162   0.0000000   0.0000000), wk =   0.0156250
        k(   17) = (   0.5081162   0.0000000   0.1485415), wk =   0.0312500
        k(   18) = (   0.5081162   0.0000000  -0.2970830), wk =   0.0156250
        k(   19) = (   0.7621743   0.0644816   0.0000000), wk =   0.0312500
        k(   20) = (   0.7621743   0.0644816   0.1485415), wk =   0.0625000
        k(   21) = (   0.7621743   0.0644816  -0.2970830), wk =   0.0312500
        k(   22) = (   1.0162324   0.1289633   0.0000000), wk =   0.0312500
        k(   23) = (   1.0162324   0.1289633   0.1485415), wk =   0.0625000
        k(   24) = (   1.0162324   0.1289633  -0.2970830), wk =   0.0312500
        k(   25) = (  -0.7621743  -0.3224082   0.0000000), wk =   0.0312500
        k(   26) = (  -0.7621743  -0.3224082   0.1485415), wk =   0.0625000
        k(   27) = (  -0.7621743  -0.3224082  -0.2970830), wk =   0.0312500
        k(   28) = (  -0.5081162  -0.2579266   0.0000000), wk =   0.0312500
        k(   29) = (  -0.5081162  -0.2579266   0.1485415), wk =   0.0625000
        k(   30) = (  -0.5081162  -0.2579266  -0.2970830), wk =   0.0312500
        k(   31) = (  -0.2540581  -0.1934449   0.0000000), wk =   0.0312500
        k(   32) = (  -0.2540581  -0.1934449   0.1485415), wk =   0.0625000
        k(   33) = (  -0.2540581  -0.1934449  -0.2970830), wk =   0.0312500
        k(   34) = (   0.0000000  -0.1289633   0.0000000), wk =   0.0156250
        k(   35) = (   0.0000000  -0.1289633   0.1485415), wk =   0.0312500
        k(   36) = (   0.0000000  -0.1289633  -0.2970830), wk =   0.0156250
        k(   37) = (   1.0162324   0.0000000   0.0000000), wk =   0.0156250
        k(   38) = (   1.0162324   0.0000000   0.1485415), wk =   0.0312500
        k(   39) = (   1.0162324   0.0000000  -0.2970830), wk =   0.0156250
        k(   40) = (   1.2702905   0.0644816   0.0000000), wk =   0.0312500
        k(   41) = (   1.2702905   0.0644816   0.1485415), wk =   0.0625000
        k(   42) = (   1.2702905   0.0644816  -0.2970830), wk =   0.0312500
        k(   43) = (  -0.5081162  -0.3868899   0.0000000), wk =   0.0312500
        k(   44) = (  -0.5081162  -0.3868899   0.1485415), wk =   0.0625000
        k(   45) = (  -0.5081162  -0.3868899  -0.2970830), wk =   0.0312500
        k(   46) = (  -0.2540581  -0.3224082   0.0000000), wk =   0.0312500
        k(   47) = (  -0.2540581  -0.3224082   0.1485415), wk =   0.0625000
        k(   48) = (  -0.2540581  -0.3224082  -0.2970830), wk =   0.0312500
        k(   49) = (   0.0000000  -0.2579266   0.0000000), wk =   0.0156250
        k(   50) = (   0.0000000  -0.2579266   0.1485415), wk =   0.0312500
        k(   51) = (   0.0000000  -0.2579266  -0.2970830), wk =   0.0156250
        k(   52) = (   1.5243485   0.0000000   0.0000000), wk =   0.0156250
        k(   53) = (   1.5243485   0.0000000   0.1485415), wk =   0.0312500
        k(   54) = (   1.5243485   0.0000000  -0.2970830), wk =   0.0156250
        k(   55) = (  -0.2540581  -0.4513715   0.0000000), wk =   0.0312500
        k(   56) = (  -0.2540581  -0.4513715   0.1485415), wk =   0.0625000
        k(   57) = (  -0.2540581  -0.4513715  -0.2970830), wk =   0.0312500
        k(   58) = (   0.0000000  -0.3868899   0.0000000), wk =   0.0156250
        k(   59) = (   0.0000000  -0.3868899   0.1485415), wk =   0.0312500
        k(   60) = (   0.0000000  -0.3868899  -0.2970830), wk =   0.0156250
        k(   61) = (  -2.0324647   0.0000000   0.0000000), wk =   0.0078125
        k(   62) = (  -2.0324647   0.0000000   0.1485415), wk =   0.0156250
        k(   63) = (  -2.0324647   0.0000000  -0.2970830), wk =   0.0078125

     Dense  grid:  1153415 G-vectors     FFT dimensions: ( 144, 144, 240)

     Smooth grid:   291749 G-vectors     FFT dimensions: (  90,  90, 150)

     Estimated max dynamical RAM per process >     657.19 MB

     Estimated total dynamical RAM >       6.42 GB

     Initial potential from superposition of free atoms

     starting charge   83.99353, renormalised to   84.00000
     Starting wfcs are   66 randomized atomic wfcs
     Checking if some PAW data can be deallocated... 

     total cpu time spent up to now is       43.5 secs

     Self-consistent Calculation

     iteration #  1     ecut=    80.00 Ry     beta= 0.70
     Davidson diagonalization with overlap
     ethr =  1.00E-02,  avg # of iterations =  2.2

     Threshold (ethr) on eigenvalues was too large:
     Diagonalizing with lowered threshold

     Davidson diagonalization with overlap
     ethr =  4.38E-04,  avg # of iterations =  4.0

     total cpu time spent up to now is      208.4 secs

     total energy              =   -4240.72411347 Ry
     estimated scf accuracy    <       0.44138810 Ry

     iteration #  2     ecut=    80.00 Ry     beta= 0.70
     Davidson diagonalization with overlap
     ethr =  5.25E-04,  avg # of iterations =  7.9

     total cpu time spent up to now is      323.9 secs

     total energy              =   -4240.62900663 Ry
     estimated scf accuracy    <       2.03218477 Ry

     iteration #  3     ecut=    80.00 Ry     beta= 0.70
     Davidson diagonalization with overlap
     ethr =  5.25E-04,  avg # of iterations =  5.5

     total cpu time spent up to now is      420.5 secs

     total energy              =   -4240.93574541 Ry
     estimated scf accuracy    <       0.00835732 Ry

     iteration #  4     ecut=    80.00 Ry     beta= 0.70
     Davidson diagonalization with overlap
     c_bands:  1 eigenvalues not converged
     c_bands:  1 eigenvalues not converged
     c_bands:  2 eigenvalues not converged
     c_bands:  1 eigenvalues not converged
     c_bands:  2 eigenvalues not converged
     c_bands:  2 eigenvalues not converged
     c_bands:  1 eigenvalues not converged
     c_bands:  1 eigenvalues not converged
     c_bands:  2 eigenvalues not converged
     c_bands:  4 eigenvalues not converged
     c_bands:  1 eigenvalues not converged
     c_bands:  4 eigenvalues not converged
     c_bands:  2 eigenvalues not converged
     c_bands:  1 eigenvalues not converged
     c_bands:  1 eigenvalues not converged
     c_bands:  2 eigenvalues not converged
     c_bands:  1 eigenvalues not converged
     c_bands:  2 eigenvalues not converged
     c_bands:  2 eigenvalues not converged
     c_bands:  1 eigenvalues not converged
     c_bands:  1 eigenvalues not converged
     c_bands:  1 eigenvalues not converged
     c_bands:  1 eigenvalues not converged
     c_bands:  1 eigenvalues not converged
     ethr =  9.95E-06,  avg # of iterations = 18.0

     total cpu time spent up to now is      604.2 secs

     total energy              =   -4240.94624302 Ry
     estimated scf accuracy    <       0.04863419 Ry

     iteration #  5     ecut=    80.00 Ry     beta= 0.70
     Davidson diagonalization with overlap
     ethr =  9.95E-06,  avg # of iterations =  6.9

     total cpu time spent up to now is      699.1 secs

     total energy              =   -4240.94803620 Ry
     estimated scf accuracy    <       0.00860612 Ry

     iteration #  6     ecut=    80.00 Ry     beta= 0.70
     Davidson diagonalization with overlap
     ethr =  9.95E-06,  avg # of iterations =  3.2

     total cpu time spent up to now is      777.5 secs

     total energy              =   -4240.94874013 Ry
     estimated scf accuracy    <       0.00109874 Ry

     iteration #  7     ecut=    80.00 Ry     beta= 0.70
     Davidson diagonalization with overlap
     ethr =  1.31E-06,  avg # of iterations = 10.9

     total cpu time spent up to now is      900.7 secs

     total energy              =   -4240.94928734 Ry
     estimated scf accuracy    <       0.00126492 Ry

     iteration #  8     ecut=    80.00 Ry     beta= 0.70
     Davidson diagonalization with overlap
     ethr =  1.31E-06,  avg # of iterations =  2.2

     total cpu time spent up to now is      972.0 secs

     total energy              =   -4240.94932439 Ry
     estimated scf accuracy    <       0.00018627 Ry

     iteration #  9     ecut=    80.00 Ry     beta= 0.70
     Davidson diagonalization with overlap
     ethr =  2.22E-07,  avg # of iterations =  6.3

     total cpu time spent up to now is     1065.1 secs

     total energy              =   -4240.94938463 Ry
     estimated scf accuracy    <       0.00002463 Ry

     iteration # 10     ecut=    80.00 Ry     beta= 0.70
     Davidson diagonalization with overlap
     ethr =  2.93E-08,  avg # of iterations =  3.2

     total cpu time spent up to now is     1140.1 secs

     total energy              =   -4240.94938698 Ry
     estimated scf accuracy    <       0.00000367 Ry

     iteration # 11     ecut=    80.00 Ry     beta= 0.70
     Davidson diagonalization with overlap
     ethr =  4.37E-09,  avg # of iterations =  6.3

     total cpu time spent up to now is     1237.9 secs

     total energy              =   -4240.94938894 Ry
     estimated scf accuracy    <       0.00000101 Ry

     iteration # 12     ecut=    80.00 Ry     beta= 0.70
     Davidson diagonalization with overlap
     ethr =  1.21E-09,  avg # of iterations =  2.3

     total cpu time spent up to now is     1308.9 secs

     total energy              =   -4240.94938898 Ry
     estimated scf accuracy    <       0.00000014 Ry

     iteration # 13     ecut=    80.00 Ry     beta= 0.70
     Davidson diagonalization with overlap
     c_bands:  1 eigenvalues not converged
     ethr =  1.71E-10,  avg # of iterations =  6.5

     total cpu time spent up to now is     1409.9 secs

     total energy              =   -4240.94938906 Ry
     estimated scf accuracy    <       0.00000007 Ry

     iteration # 14     ecut=    80.00 Ry     beta= 0.70
     Davidson diagonalization with overlap
     ethr =  8.12E-11,  avg # of iterations =  1.4

     total cpu time spent up to now is     1477.9 secs

     total energy              =   -4240.94938905 Ry
     estimated scf accuracy    <       0.00000003 Ry

     iteration # 15     ecut=    80.00 Ry     beta= 0.70
     Davidson diagonalization with overlap
     ethr =  3.44E-11,  avg # of iterations =  4.8

     total cpu time spent up to now is     1560.9 secs

     total energy              =   -4240.94938906 Ry
     estimated scf accuracy    <          2.0E-10 Ry

     iteration # 16     ecut=    80.00 Ry     beta= 0.70
     Davidson diagonalization with overlap
     ethr =  2.35E-13,  avg # of iterations = 11.3

     total cpu time spent up to now is     1716.7 secs

     total energy              =   -4240.94938906 Ry
     estimated scf accuracy    <          3.4E-09 Ry

     iteration # 17     ecut=    80.00 Ry     beta= 0.70
     Davidson diagonalization with overlap
     ethr =  2.35E-13,  avg # of iterations =  5.2

     total cpu time spent up to now is     1803.9 secs

     total energy              =   -4240.94938906 Ry
     estimated scf accuracy    <          6.4E-10 Ry

     iteration # 18     ecut=    80.00 Ry     beta= 0.70
     Davidson diagonalization with overlap
     ethr =  2.35E-13,  avg # of iterations =  5.9

     total cpu time spent up to now is     1872.5 secs

     End of self-consistent calculation

          k = 0.0000 0.0000 0.0000 ( 36359 PWs)   bands (ev):

   -44.1396 -44.1396 -22.2590 -22.2590 -22.1683 -22.1682 -22.0731 -22.0730
    -8.0435  -7.7795  -7.1287  -6.9180  -6.1889  -5.4137  -4.8136  -4.8107
    -4.7618  -3.8028   0.2779   0.7658   0.8048   1.1431   1.3654   1.5363
     2.0620   2.2419   2.2867   2.7800   2.9218   2.9994   3.3236   3.3266
     3.7795   3.8791   4.0396   4.0849   4.3092   4.3402   4.4116   4.7083
     4.7542   5.4072   5.6371   5.8721   5.9021   5.9559   6.0130   6.7865
     7.0407   7.2783

          k = 0.0000 0.0000 0.1485 ( 36415 PWs)   bands (ev):

   -44.1396 -44.1396 -22.2590 -22.2590 -22.1683 -22.1683 -22.0731 -22.0730
    -8.0144  -7.8329  -7.0793  -6.9367  -6.1204  -5.6222  -4.8050  -4.7693
    -4.5767  -3.9150   0.3519   0.8353   0.9104   0.9664   1.0997   1.8776
     2.0285   2.0828   2.2076   2.8097   2.9072   3.0767   3.4002   3.4312
     3.7540   3.9331   4.0131   4.0938   4.2393   4.3689   4.4241   4.7048
     4.7254   4.9260   5.8381   5.8986   5.9035   6.1185   6.3849   6.6199
     6.8559   7.1496

          k = 0.0000 0.0000-0.2971 ( 36410 PWs)   bands (ev):

   -44.1396 -44.1396 -22.2590 -22.2590 -22.1683 -22.1683 -22.0730 -22.0730
    -7.9345  -7.9345  -6.9941  -6.9941  -5.9184  -5.9184  -4.7872  -4.7872
    -4.2070  -4.2070   0.5779   0.5779   0.9554   0.9554   1.3445   1.3445
     2.1390   2.1390   2.5941   2.5941   2.8655   2.8655   3.5625   3.5625
     3.9187   3.9187   4.0768   4.0768   4.3268   4.3268   4.4124   4.4124
     4.7032   4.7032   5.8954   5.8954   6.2249   6.2249   6.4801   6.4801
     6.8672   6.8672

          k = 0.2541 0.0645 0.0000 ( 36396 PWs)   bands (ev):

   -44.1393 -44.1393 -22.2571 -22.2571 -22.1779 -22.1779 -22.0720 -22.0719
    -7.9214  -7.6608  -7.0618  -6.8694  -6.1285  -5.3664  -4.8484  -4.7670
    -4.7168  -3.9702   0.3614   0.8841   0.9309   1.0893   1.2553   1.4703
     1.6256   1.7593   1.8056   2.5824   2.6096   3.2358   3.2473   3.7139
     3.7686   3.7751   3.8589   3.8649   4.0543   4.2538   4.3231   4.3708
     4.4774   4.5714   5.8822   5.9789   6.1849   6.5386   6.6098   6.6519
     7.0301   7.2075

          k = 0.2541 0.0645 0.1485 ( 36423 PWs)   bands (ev):

   -44.1393 -44.1393 -22.2571 -22.2571 -22.1779 -22.1779 -22.0720 -22.0719
    -7.8928  -7.7138  -7.0161  -6.8864  -6.0592  -5.5698  -4.7731  -4.7262
    -4.6177  -4.0590   0.4241   0.8823   0.9252   0.9735   1.2054   1.2998
     1.7333   1.8361   2.1439   2.5776   2.5923   2.9545   3.3873   3.3956
     3.5330   3.8180   3.9522   3.9970   4.0486   4.1887   4.3746   4.3907
     4.6900   4.7713   5.8684   5.9810   6.1421   6.2470   6.3569   6.7765
     7.2130   7.2691

          k = 0.2541 0.0645-0.2971 ( 36436 PWs)   bands (ev):

   -44.1393 -44.1393 -22.2571 -22.2571 -22.1779 -22.1779 -22.0719 -22.0719
    -7.8140  -7.8140  -6.9384  -6.9384  -5.8586  -5.8586  -4.7485  -4.7485
    -4.2992  -4.2992   0.6093   0.6093   1.0261   1.0261   1.1207   1.1207
     1.9122   1.9122   2.4851   2.4851   2.6577   2.6577   3.2394   3.2394
     3.6584   3.6584   3.9801   3.9801   4.1441   4.1441   4.3951   4.3951
     4.9659   4.9659   5.7931   5.7931   6.1483   6.1483   6.4553   6.4553
     7.3798   7.3798

          k = 0.5081 0.1290 0.0000 ( 36499 PWs)   bands (ev):

   -44.1384 -44.1384 -22.2524 -22.2524 -22.2010 -22.2010 -22.0693 -22.0692
    -7.5670  -7.3135  -6.9025  -6.7464  -5.9500  -5.2527  -5.0224  -4.6535
    -4.6061  -4.4645   0.2038   0.5422   0.6653   1.1498   1.1741   1.3060
     1.6334   1.7061   1.8650   2.0913   2.1527   2.3323   2.5061   3.4097
     3.5043   3.5182   3.5789   3.6118   3.7709   3.8561   3.9663   4.2016
     4.3473   4.9466   5.7224   6.1161   6.2085   6.6021   6.6284   7.0063
     7.4493   7.5593

          k = 0.5081 0.1290 0.1485 ( 36476 PWs)   bands (ev):

   -44.1384 -44.1384 -22.2524 -22.2524 -22.2010 -22.2010 -22.0693 -22.0692
    -7.5397  -7.3668  -6.8636  -6.7600  -5.8828  -5.4441  -4.8704  -4.6383
    -4.6238  -4.4869   0.2449   0.5376   0.7624   0.9326   1.2142   1.2973
     1.4063   1.5709   2.0093   2.0937   2.3473   2.4590   2.8339   3.3986
     3.4394   3.5056   3.5089   3.6402   3.7411   3.7681   3.8590   4.2444
     4.2998   4.4796   6.1986   6.2352   6.3894   6.6025   6.6775   6.8736
     7.2956   7.5217

          k = 0.5081 0.1290-0.2971 ( 36466 PWs)   bands (ev):

   -44.1384 -44.1384 -22.2524 -22.2524 -22.2010 -22.2010 -22.0692 -22.0692
    -7.4644  -7.4644  -6.8011  -6.8011  -5.6977  -5.6977  -4.7207  -4.7207
    -4.5533  -4.5533   0.3855   0.3855   0.9911   0.9912   1.0248   1.0248
     1.4445   1.4445   2.0556   2.0556   2.6782   2.6782   3.1781   3.1781
     3.3970   3.3970   3.5686   3.5686   3.7364   3.7364   3.8711   3.8711
     4.3246   4.3246   6.4377   6.4377   6.5672   6.5672   6.8667   6.8667
     7.1931   7.1931

          k = 0.7622 0.1934 0.0000 ( 36521 PWs)   bands (ev):

   -44.1375 -44.1375 -22.2476 -22.2476 -22.2241 -22.2241 -22.0666 -22.0665
    -7.0449  -6.7691  -6.7541  -6.5786  -5.7360  -5.4559  -5.1727  -5.1350
    -4.5276  -4.4904  -0.1045   0.0194   0.3542   0.9569   0.9665   1.2862
     1.4857   1.6010   1.9974   2.1627   2.2329   2.2769   2.4355   2.8025
     2.9466   3.2595   3.3523   3.4895   3.5172   3.6680   3.7321   3.7783
     3.8290   4.5736   6.0418   6.4033   6.4745   6.8983   6.9210   6.9889
     7.3577   7.6355

          k = 0.7622 0.1934 0.1485 ( 36503 PWs)   bands (ev):

   -44.1375 -44.1375 -22.2476 -22.2476 -22.2241 -22.2241 -22.0666 -22.0665
    -7.0212  -6.8609  -6.6796  -6.5898  -5.6925  -5.4931  -5.1721  -5.1432
    -4.5197  -4.4939  -0.0824   0.1620   0.2455   0.8376   0.9685   1.2406
     1.4965   1.6095   1.9778   2.0441   2.1255   2.5994   2.6939   2.8832
     2.9150   3.0554   3.2715   3.3763   3.5180   3.6143   3.7026   3.9315
     3.9797   4.4798   5.8554   6.4000   6.7051   6.8320   7.0076   7.0149
     7.1396   7.6351

          k = 0.7622 0.1934-0.2971 ( 36522 PWs)   bands (ev):

   -44.1375 -44.1375 -22.2476 -22.2476 -22.2241 -22.2241 -22.0665 -22.0665
    -6.9550  -6.9550  -6.6232  -6.6232  -5.5901  -5.5901  -5.1609  -5.1609
    -4.5047  -4.5047   0.0459   0.0459   0.4877   0.4877   1.0819   1.0819
     1.5603   1.5603   2.0081   2.0081   2.4086   2.4086   2.8343   2.8343
     2.9755   2.9755   3.2904   3.2904   3.5977   3.5977   3.9341   3.9341
     4.0650   4.0650   6.2702   6.2702   6.4933   6.4933   7.0327   7.0327
     7.5066   7.5066

          k =-1.0162-0.2579 0.0000 ( 36506 PWs)   bands (ev):

   -44.1371 -44.1371 -22.2455 -22.2455 -22.2337 -22.2337 -22.0654 -22.0654
    -6.7377  -6.7172  -6.1382  -6.1269  -6.1040  -6.0984  -5.2479  -5.2473
    -4.4701  -4.4421  -0.0865  -0.0660   0.2248   0.2465   1.0110   1.0195
     1.4671   1.6639   2.2237   2.3873   2.4043   2.4267   2.8122   2.8156
     2.8223   2.8369   3.1916   3.2500   3.3150   3.3783   3.4528   3.6545
     3.8827   4.1588   6.6292   6.6828   6.7027   6.7032   7.0817   7.1779
     7.1810   7.2335

          k =-1.0162-0.2579 0.1485 ( 36506 PWs)   bands (ev):

   -44.1371 -44.1371 -22.2455 -22.2455 -22.2337 -22.2337 -22.0654 -22.0654
    -6.7334  -6.7188  -6.1650  -6.1574  -6.0759  -6.0715  -5.2458  -5.2455
    -4.4686  -4.4489  -0.1823  -0.1760   0.4286   0.4363   1.0065   1.0190
     1.4613   1.5931   2.0394   2.1563   2.3586   2.3963   2.6704   2.6798
     2.9323   3.0475   3.0844   3.1985   3.5490   3.5642   3.6012   3.7331
     4.0508   4.1951   6.1572   6.1771   6.5404   6.6171   7.1822   7.1950
     7.3915   7.4561

          k =-1.0162-0.2579-0.2971 ( 36528 PWs)   bands (ev):

   -44.1371 -44.1371 -22.2455 -22.2455 -22.2337 -22.2337 -22.0654 -22.0654
    -6.7247  -6.7247  -6.1779  -6.1779  -6.0582  -6.0582  -5.2437  -5.2437
    -4.4614  -4.4614  -0.2417  -0.2417   0.6355   0.6355   0.9677   0.9677
     1.5121   1.5121   1.8656   1.8656   2.3606   2.3606   2.7632   2.7632
     2.8565   2.8565   3.1787   3.1787   3.6359   3.6359   3.7988   3.7988
     4.3209   4.3209   5.7659   5.7659   6.4871   6.4871   7.2055   7.2055
     7.5171   7.5171

          k = 0.5081 0.0000 0.0000 ( 36503 PWs)   bands (ev):

   -44.1384 -44.1384 -22.2524 -22.2524 -22.2010 -22.2010 -22.0693 -22.0692
    -7.5698  -7.3140  -6.9030  -6.7441  -5.9468  -5.2524  -5.0198  -4.6473
    -4.6135  -4.4640   0.2088   0.5386   0.6624   1.1698   1.1820   1.2414
     1.6281   1.6994   1.8515   2.0977   2.1519   2.3157   2.5074   3.4022
     3.5354   3.5467   3.5810   3.5875   3.7808   3.9104   3.9489   4.2391
     4.3497   4.9398   5.7284   6.0924   6.2434   6.5648   6.5764   7.0429
     7.4583   7.5794

          k = 0.5081 0.0000 0.1485 ( 36453 PWs)   bands (ev):

   -44.1384 -44.1384 -22.2524 -22.2524 -22.2010 -22.2010 -22.0693 -22.0692
    -7.5424  -7.3681  -6.8630  -6.7577  -5.8803  -5.4436  -4.8665  -4.6394
    -4.6233  -4.4883   0.2480   0.5313   0.7637   0.9379   1.2435   1.2569
     1.3750   1.5485   2.0077   2.1059   2.3515   2.4309   2.8326   3.4120
     3.4693   3.4787   3.5172   3.6508   3.7299   3.8350   3.8399   4.2912
     4.3059   4.4671   6.1879   6.2459   6.4086   6.5565   6.6400   6.9066
     7.3124   7.5342

          k = 0.5081 0.0000-0.2971 ( 36452 PWs)   bands (ev):

   -44.1384 -44.1384 -22.2524 -22.2524 -22.2010 -22.2010 -22.0692 -22.0692
    -7.4665  -7.4665  -6.7993  -6.7993  -5.6964  -5.6964  -4.7170  -4.7170
    -4.5560  -4.5560   0.3843   0.3843   0.9927   0.9927   1.0292   1.0292
     1.4088   1.4088   2.0590   2.0590   2.6685   2.6685   3.1758   3.1758
     3.4041   3.4041   3.5760   3.5760   3.7663   3.7663   3.8646   3.8646
     4.3434   4.3434   6.4529   6.4529   6.5311   6.5311   6.8850   6.8850
     7.1939   7.1939

          k = 0.7622 0.0645 0.0000 ( 36505 PWs)   bands (ev):

   -44.1375 -44.1375 -22.2476 -22.2476 -22.2241 -22.2241 -22.0666 -22.0665
    -7.0517  -6.7702  -6.7516  -6.5730  -5.7362  -5.4534  -5.1732  -5.1341
    -4.5172  -4.5017  -0.0952   0.0164   0.3655   0.9559   0.9881   1.2998
     1.4518   1.5639   1.9622   2.1855   2.2559   2.2635   2.3714   2.7781
     2.9362   3.3058   3.3670   3.5221   3.5469   3.6536   3.6978   3.7896
     3.8321   4.6009   6.0391   6.3798   6.4895   6.8936   6.9484   6.9551
     7.3693   7.6632

          k = 0.7622 0.0645 0.1485 ( 36509 PWs)   bands (ev):

   -44.1375 -44.1375 -22.2476 -22.2476 -22.2241 -22.2241 -22.0666 -22.0665
    -7.0277  -6.8638  -6.6754  -6.5840  -5.6929  -5.4919  -5.1717  -5.1423
    -4.5124  -4.5018  -0.0741   0.1595   0.2536   0.8274   0.9959   1.2546
     1.4661   1.6073   1.9786   2.0069   2.0625   2.6054   2.6907   2.8762
     2.8953   3.0600   3.3173   3.3811   3.5619   3.6037   3.6729   3.9667
     3.9824   4.4744   5.8800   6.3774   6.7202   6.8334   6.9825   7.0535
     7.1121   7.6566

          k = 0.7622 0.0645-0.2971 ( 36472 PWs)   bands (ev):

   -44.1375 -44.1375 -22.2476 -22.2476 -22.2241 -22.2241 -22.0665 -22.0665
    -6.9602  -6.9602  -6.6174  -6.6174  -5.5904  -5.5904  -5.1599  -5.1599
    -4.5049  -4.5049   0.0542   0.0542   0.4805   0.4805   1.1027   1.1027
     1.5547   1.5547   1.9553   1.9553   2.3971   2.3971   2.8381   2.8381
     2.9570   2.9570   3.3443   3.3443   3.5948   3.5948   3.9276   3.9276
     4.0710   4.0710   6.2967   6.2967   6.4929   6.4929   7.0019   7.0019
     7.5341   7.5341

          k = 1.0162 0.1290 0.0000 ( 36514 PWs)   bands (ev):

   -44.1371 -44.1371 -22.2455 -22.2455 -22.2337 -22.2337 -22.0654 -22.0654
    -6.7377  -6.7172  -6.1380  -6.1271  -6.1040  -6.0984  -5.2479  -5.2473
    -4.4701  -4.4421  -0.0922  -0.0601   0.2216   0.2498   1.0036   1.0279
     1.4737   1.6541   2.2207   2.3917   2.4050   2.4220   2.7828   2.8156
     2.8324   2.8720   3.2113   3.2251   3.2953   3.3648   3.5012   3.6353
     3.8668   4.1743   6.6237   6.6685   6.7108   6.7176   7.1045   7.1783
     7.1831   7.2155

          k = 1.0162 0.1290 0.1485 ( 36524 PWs)   bands (ev):

   -44.1371 -44.1371 -22.2455 -22.2455 -22.2337 -22.2337 -22.0654 -22.0654
    -6.7334  -6.7188  -6.1649  -6.1575  -6.0759  -6.0716  -5.2458  -5.2454
    -4.4686  -4.4489  -0.1846  -0.1740   0.4299   0.4356   1.0064   1.0193
     1.4672   1.5871   2.0502   2.1392   2.3607   2.3936   2.6390   2.7176
     2.9363   3.0606   3.0801   3.1885   3.5203   3.5752   3.6276   3.7258
     4.0291   4.2144   6.1514   6.1872   6.5369   6.6197   7.1858   7.1947
     7.4014   7.4474

          k = 1.0162 0.1290-0.2971 ( 36516 PWs)   bands (ev):

   -44.1371 -44.1371 -22.2455 -22.2455 -22.2337 -22.2337 -22.0654 -22.0654
    -6.7247  -6.7247  -6.1779  -6.1779  -6.0582  -6.0582  -5.2437  -5.2437
    -4.4614  -4.4614  -0.2418  -0.2418   0.6359   0.6359   0.9675   0.9675
     1.5132   1.5132   1.8664   1.8664   2.3532   2.3532   2.7452   2.7452
     2.8920   2.8920   3.1656   3.1656   3.6381   3.6381   3.7972   3.7972
     4.3214   4.3214   5.7686   5.7686   6.4863   6.4863   7.2066   7.2066
     7.5182   7.5182

          k =-0.7622-0.3224 0.0000 ( 36511 PWs)   bands (ev):

   -44.1375 -44.1375 -22.2476 -22.2476 -22.2241 -22.2241 -22.0666 -22.0665
    -7.0346  -6.7675  -6.7585  -6.5862  -5.7357  -5.4594  -5.1720  -5.1363
    -4.5357  -4.4812  -0.1174   0.0239   0.3383   0.9231   0.9813   1.2696
     1.5037   1.6663   2.0698   2.1378   2.2283   2.3009   2.4579   2.8390
     2.9576   3.2156   3.3386   3.4756   3.5098   3.6285   3.6760   3.7429
     3.9350   4.5265   6.0456   6.4135   6.4892   6.8164   6.9630   7.0554
     7.3301   7.5968

          k =-0.7622-0.3224 0.1485 ( 36492 PWs)   bands (ev):

   -44.1375 -44.1375 -22.2476 -22.2476 -22.2241 -22.2241 -22.0666 -22.0665
    -7.0116  -6.8568  -6.6861  -6.5980  -5.6918  -5.4949  -5.1726  -5.1447
    -4.5253  -4.4874  -0.0940   0.1665   0.2331   0.8506   0.9388   1.2215
     1.5272   1.6191   1.9670   2.1388   2.1918   2.5947   2.6770   2.9032
     2.9266   3.0731   3.2237   3.3545   3.4745   3.5918   3.7410   3.8791
     3.9909   4.4856   5.8230   6.4362   6.6750   6.8281   6.9710   7.0660
     7.1663   7.5893

          k =-0.7622-0.3224-0.2971 ( 36508 PWs)   bands (ev):

   -44.1375 -44.1375 -22.2476 -22.2476 -22.2241 -22.2241 -22.0665 -22.0665
    -6.9473  -6.9473  -6.6317  -6.6317  -5.5898  -5.5898  -5.1624  -5.1624
    -4.5044  -4.5044   0.0344   0.0344   0.4973   0.4973   1.0572   1.0572
     1.5686   1.5686   2.0705   2.0705   2.4404   2.4404   2.8298   2.8298
     3.0026   3.0026   3.2144   3.2144   3.5952   3.5952   3.9145   3.9145
     4.0833   4.0833   6.2363   6.2363   6.4921   6.4921   7.0824   7.0824
     7.4577   7.4577

          k =-0.5081-0.2579 0.0000 ( 36480 PWs)   bands (ev):

   -44.1384 -44.1384 -22.2524 -22.2524 -22.2010 -22.2010 -22.0693 -22.0692
    -7.5602  -7.3122  -6.9017  -6.7516  -5.9579  -5.2534  -5.0287  -4.6626
    -4.5939  -4.4657   0.1921   0.5513   0.6684   1.1278   1.1842   1.4174
     1.6424   1.7315   1.8990   2.0797   2.1486   2.3660   2.5006   3.3959
     3.4297   3.5172   3.5573   3.6520   3.7227   3.7613   3.9996   4.1183
     4.3379   4.9609   5.7103   6.1159   6.1843   6.6983   6.7516   6.9199
     7.4179   7.5142

          k =-0.5081-0.2579 0.1485 ( 36485 PWs)   bands (ev):

   -44.1384 -44.1384 -22.2524 -22.2524 -22.2010 -22.2010 -22.0693 -22.0692
    -7.5332  -7.3638  -6.8653  -6.7653  -5.8890  -5.4454  -4.8795  -4.6356
    -4.6254  -4.4835   0.2375   0.5525   0.7587   0.9198   1.2018   1.3294
     1.4968   1.6338   2.0027   2.0722   2.3484   2.5080   2.8365   3.3221
     3.4447   3.4950   3.5211   3.6256   3.6348   3.7628   3.8842   4.1598
     4.2651   4.5021   6.1951   6.2341   6.3486   6.7014   6.7804   6.8028
     7.2474   7.4956

          k =-0.5081-0.2579-0.2971 ( 36478 PWs)   bands (ev):

   -44.1384 -44.1384 -22.2524 -22.2524 -22.2010 -22.2010 -22.0692 -22.0692
    -7.4591  -7.4591  -6.8057  -6.8057  -5.7007  -5.7007  -4.7292  -4.7292
    -4.5472  -4.5472   0.3882   0.3882   0.9855   0.9855   1.0185   1.0185
     1.5367   1.5367   2.0423   2.0423   2.7070   2.7070   3.1676   3.1676
     3.3791   3.3791   3.5319   3.5319   3.6960   3.6960   3.8842   3.8842
     4.2808   4.2808   6.4032   6.4032   6.6447   6.6447   6.8264   6.8264
     7.1987   7.1987

          k =-0.2541-0.1934 0.0000 ( 36410 PWs)   bands (ev):

   -44.1393 -44.1393 -22.2571 -22.2571 -22.1779 -22.1779 -22.0720 -22.0719
    -7.9167  -7.6600  -7.0573  -6.8727  -6.1404  -5.3694  -4.8597  -4.7723
    -4.7038  -3.9710   0.3855   0.8895   0.9983   1.0847   1.2839   1.5067
     1.6511   1.7602   1.8302   2.5510   2.6001   3.2311   3.2954   3.6801
     3.7250   3.7263   3.8315   3.8695   3.9090   4.1934   4.3127   4.3331
     4.3612   4.6141   5.9391   6.0157   6.2587   6.5480   6.5981   6.7192
     7.0050   7.1276

          k =-0.2541-0.1934 0.1485 ( 36427 PWs)   bands (ev):

   -44.1393 -44.1393 -22.2571 -22.2571 -22.1779 -22.1779 -22.0720 -22.0719
    -7.8883  -7.7117  -7.0139  -6.8893  -6.0693  -5.5734  -4.7902  -4.7188
    -4.6125  -4.0591   0.4474   0.8837   0.9370   1.0487   1.2382   1.3173
     1.7417   1.8406   2.1756   2.5499   2.5849   2.9450   3.4045   3.4399
     3.5432   3.7258   3.8273   3.9047   4.0016   4.1608   4.3313   4.3417
     4.6697   4.7893   5.8649   6.0047   6.1430   6.3195   6.4237   6.7765
     7.1735   7.2593

          k =-0.2541-0.1934-0.2971 ( 36422 PWs)   bands (ev):

   -44.1393 -44.1393 -22.2571 -22.2571 -22.1779 -22.1779 -22.0719 -22.0719
    -7.8104  -7.8104  -6.9397  -6.9397  -5.8648  -5.8648  -4.7525  -4.7525
    -4.2975  -4.2975   0.6287   0.6287   1.0585   1.0585   1.1518   1.1518
     1.9174   1.9174   2.4825   2.4825   2.6587   2.6587   3.2508   3.2508
     3.6605   3.6605   3.8350   3.8350   4.1203   4.1203   4.3423   4.3423
     4.9801   4.9801   5.7618   5.7618   6.1802   6.1802   6.5095   6.5095
     7.3672   7.3672

          k = 0.0000-0.1290 0.0000 ( 36417 PWs)   bands (ev):

   -44.1396 -44.1396 -22.2590 -22.2590 -22.1683 -22.1682 -22.0731 -22.0730
    -8.0411  -7.7791  -7.1255  -6.9197  -6.1965  -5.4160  -4.8301  -4.8075
    -4.7506  -3.8032   0.2948   0.7694   0.8456   1.1537   1.3768   1.5667
     2.0621   2.2413   2.2853   2.7870   2.9243   3.0023   3.3223   3.3621
     3.7397   3.8679   3.9117   4.0126   4.2862   4.3094   4.3643   4.7073
     4.7420   5.3801   5.6577   5.8953   5.9526   5.9636   6.0607   6.7961
     7.0408   7.2298

          k = 0.0000-0.1290 0.1485 ( 36419 PWs)   bands (ev):

   -44.1396 -44.1396 -22.2590 -22.2590 -22.1683 -22.1683 -22.0731 -22.0730
    -8.0121  -7.8319  -7.0774  -6.9381  -6.1270  -5.6248  -4.8145  -4.7641
    -4.5749  -3.9151   0.3688   0.8780   0.9185   0.9711   1.1203   1.8821
     2.0462   2.0829   2.2072   2.8159   2.9103   3.0821   3.3779   3.4679
     3.7483   3.8930   3.9226   3.9983   4.2359   4.3151   4.3789   4.7035
     4.7179   4.9190   5.8520   5.9235   5.9516   6.1243   6.3996   6.6252
     6.8569   7.1220

          k = 0.0000-0.1290-0.2971 ( 36464 PWs)   bands (ev):

   -44.1396 -44.1396 -22.2590 -22.2590 -22.1683 -22.1683 -22.0730 -22.0730
    -7.9326  -7.9326  -6.9943  -6.9943  -5.9227  -5.9227  -4.7892  -4.7892
    -4.2064  -4.2064   0.5969   0.5969   0.9803   0.9803   1.3503   1.3503
     2.1389   2.1389   2.6060   2.6060   2.8700   2.8700   3.5618   3.5618
     3.8555   3.8555   4.0687   4.0687   4.2426   4.2426   4.4082   4.4082
     4.7005   4.7005   5.9216   5.9216   6.2382   6.2382   6.4832   6.4832
     6.8605   6.8605

          k = 1.0162 0.0000 0.0000 ( 36499 PWs)   bands (ev):

   -44.1371 -44.1371 -22.2455 -22.2455 -22.2337 -22.2337 -22.0654 -22.0654
    -6.7377  -6.7172  -6.1378  -6.1273  -6.1040  -6.0984  -5.2479  -5.2473
    -4.4701  -4.4421  -0.0964  -0.0559   0.2190   0.2525   0.9996   1.0328
     1.4812   1.6433   2.2178   2.3983   2.4058   2.4151   2.7740   2.8183
     2.8253   2.9010   3.2113   3.2367   3.2705   3.3455   3.5773   3.5822
     3.8526   4.1883   6.6189   6.6600   6.7182   6.7264   7.1430   7.1789
     7.1818   7.1849

          k = 1.0162 0.0000 0.1485 ( 36485 PWs)   bands (ev):

   -44.1371 -44.1371 -22.2455 -22.2455 -22.2337 -22.2337 -22.0654 -22.0654
    -6.7334  -6.7188  -6.1648  -6.1576  -6.0758  -6.0716  -5.2458  -5.2454
    -4.4686  -4.4489  -0.1863  -0.1726   0.4321   0.4340   1.0064   1.0194
     1.4740   1.5802   2.0668   2.1163   2.3656   2.3878   2.6275   2.7338
     2.9448   3.0651   3.0839   3.1760   3.5057   3.5758   3.6546   3.7143
     4.0109   4.2301   6.1483   6.1948   6.5337   6.6220   7.1911   7.1925
     7.4243   7.4260

          k = 1.0162 0.0000-0.2971 ( 36514 PWs)   bands (ev):

   -44.1371 -44.1371 -22.2455 -22.2455 -22.2337 -22.2337 -22.0654 -22.0654
    -6.7247  -6.7247  -6.1779  -6.1779  -6.0582  -6.0582  -5.2437  -5.2437
    -4.4614  -4.4614  -0.2419  -0.2419   0.6362   0.6362   0.9673   0.9673
     1.5144   1.5144   1.8672   1.8672   2.3459   2.3459   2.7334   2.7334
     2.9233   2.9233   3.1503   3.1503   3.6402   3.6402   3.7957   3.7957
     4.3219   4.3219   5.7712   5.7712   6.4856   6.4856   7.2076   7.2076
     7.5194   7.5194

          k = 1.2703 0.0645 0.0000 ( 36468 PWs)   bands (ev):

   -44.1375 -44.1375 -22.2476 -22.2476 -22.2241 -22.2241 -22.0666 -22.0665
    -7.0268  -6.7664  -6.7623  -6.5914  -5.7355  -5.4620  -5.1714  -5.1373
    -4.5399  -4.4762  -0.1263   0.0272   0.3269   0.9040   0.9918   1.2589
     1.5065   1.7145   2.1225   2.1486   2.2369   2.3167   2.4261   2.8676
     2.9609   3.1839   3.3713   3.4833   3.5036   3.5951   3.6092   3.6990
     4.0262   4.4821   6.0483   6.4104   6.5199   6.7569   6.9950   7.1178
     7.2945   7.5857

          k = 1.2703 0.0645 0.1485 ( 36490 PWs)   bands (ev):

   -44.1375 -44.1375 -22.2476 -22.2476 -22.2241 -22.2241 -22.0666 -22.0665
    -7.0043  -6.8540  -6.6911  -6.6037  -5.6914  -5.4961  -5.1729  -5.1457
    -4.5283  -4.4839  -0.1020   0.1710   0.2230   0.8578   0.9234   1.2091
     1.5403   1.6314   1.9645   2.2050   2.2461   2.5982   2.6394   2.9169
     2.9347   3.1027   3.1945   3.3249   3.4748   3.5436   3.7648   3.8330
     4.0138   4.4881   5.8017   6.4667   6.6455   6.8246   6.9506   7.1229
     7.1742   7.5460

          k = 1.2703 0.0645-0.2971 ( 36480 PWs)   bands (ev):

   -44.1375 -44.1375 -22.2476 -22.2476 -22.2241 -22.2241 -22.0665 -22.0665
    -6.9416  -6.9416  -6.6380  -6.6380  -5.5895  -5.5895  -5.1635  -5.1635
    -4.5042  -4.5042   0.0265   0.0265   0.5037   0.5037   1.0424   1.0424
     1.5749   1.5749   2.1038   2.1038   2.4788   2.4788   2.8281   2.8281
     3.0219   3.0219   3.1572   3.1572   3.5895   3.5895   3.8875   3.8875
     4.1081   4.1081   6.2145   6.2145   6.4906   6.4906   7.1237   7.1237
     7.4136   7.4136

          k =-0.5081-0.3869 0.0000 ( 36463 PWs)   bands (ev):

   -44.1384 -44.1384 -22.2524 -22.2524 -22.2010 -22.2010 -22.0693 -22.0692
    -7.5531  -7.3110  -6.9017  -6.7560  -5.9659  -5.2541  -5.0351  -4.6684
    -4.5852  -4.4668   0.1808   0.5621   0.6649   1.1249   1.1942   1.5387
     1.6516   1.7467   1.9348   2.0599   2.1746   2.3685   2.4915   3.2876
     3.4569   3.5077   3.5325   3.6473   3.6973   3.7269   3.9323   4.1166
     4.3253   4.9723   5.7004   6.0289   6.2515   6.8052   6.8343   6.8810
     7.3578   7.4885

          k =-0.5081-0.3869 0.1485 ( 36477 PWs)   bands (ev):

   -44.1384 -44.1384 -22.2524 -22.2524 -22.2010 -22.2010 -22.0693 -22.0692
    -7.5266  -7.3608  -6.8676  -6.7700  -5.8952  -5.4466  -4.8883  -4.6326
    -4.6274  -4.4803   0.2303   0.5669   0.7537   0.9072   1.2028   1.3483
     1.6115   1.7065   1.9799   2.0491   2.3730   2.5248   2.8385   3.2294
     3.4591   3.4692   3.5069   3.5574   3.6471   3.7436   3.8912   4.1159
     4.2148   4.5208   6.1467   6.2659   6.3223   6.7152   6.8054   6.9153
     7.1803   7.4857

          k =-0.5081-0.3869-0.2971 ( 36492 PWs)   bands (ev):

   -44.1384 -44.1384 -22.2524 -22.2524 -22.2010 -22.2010 -22.0692 -22.0692
    -7.4537  -7.4537  -6.8104  -6.8104  -5.7037  -5.7037  -4.7373  -4.7373
    -4.5415  -4.5415   0.3906   0.3906   0.9790   0.9790   1.0153   1.0153
     1.6474   1.6474   2.0142   2.0142   2.7482   2.7482   3.1128   3.1128
     3.3684   3.3684   3.4936   3.4936   3.6816   3.6816   3.8915   3.8915
     4.2422   4.2422   6.3705   6.3705   6.6893   6.6893   6.8082   6.8082
     7.2218   7.2218

          k =-0.2541-0.3224 0.0000 ( 36485 PWs)   bands (ev):

   -44.1393 -44.1393 -22.2571 -22.2571 -22.1779 -22.1779 -22.0720 -22.0719
    -7.9100  -7.6588  -7.0516  -6.8764  -6.1578  -5.3735  -4.8762  -4.7719
    -4.6926  -3.9723   0.4108   0.8996   1.0754   1.1154   1.3321   1.5781
     1.6883   1.7614   1.8670   2.4821   2.5571   3.2241   3.3938   3.5363
     3.6046   3.7005   3.7140   3.8453   3.9528   4.1361   4.1746   4.2817
     4.3152   4.6493   6.0293   6.0516   6.3258   6.5637   6.6156   6.7894
     6.9271   7.0509

          k =-0.2541-0.3224 0.1485 ( 36445 PWs)   bands (ev):

   -44.1393 -44.1393 -22.2571 -22.2571 -22.1779 -22.1779 -22.0720 -22.0719
    -7.8819  -7.7088  -7.0114  -6.8929  -6.0837  -5.5782  -4.8092  -4.7125
    -4.6061  -4.0591   0.4716   0.8897   0.9493   1.1696   1.3090   1.3449
     1.7626   1.8464   2.2249   2.4851   2.5461   2.9464   3.4087   3.4962
     3.5277   3.5603   3.6567   3.9022   3.9290   4.1028   4.2460   4.3023
     4.6762   4.7958   5.8600   6.0362   6.1449   6.3699   6.5214   6.7636
     7.1407   7.2423

          k =-0.2541-0.3224-0.2971 ( 36442 PWs)   bands (ev):

   -44.1393 -44.1393 -22.2571 -22.2571 -22.1779 -22.1779 -22.0719 -22.0719
    -7.8053  -7.8053  -6.9416  -6.9416  -5.8736  -5.8736  -4.7581  -4.7581
    -4.2950  -4.2950   0.6477   0.6477   1.0854   1.0854   1.2404   1.2404
     1.9280   1.9280   2.4625   2.4625   2.6575   2.6575   3.2642   3.2642
     3.5260   3.5260   3.8020   3.8020   4.0633   4.0633   4.2815   4.2815
     4.9997   4.9997   5.7278   5.7278   6.1837   6.1837   6.5902   6.5902
     7.3533   7.3533

          k = 0.0000-0.2579 0.0000 ( 36445 PWs)   bands (ev):

   -44.1397 -44.1396 -22.2590 -22.2590 -22.1683 -22.1682 -22.0731 -22.0730
    -8.0350  -7.7780  -7.1181  -6.9231  -6.2154  -5.4214  -4.8576  -4.7990
    -4.7366  -3.8044   0.3282   0.7790   0.9549   1.2046   1.4031   1.6328
     2.0622   2.2398   2.2831   2.8046   2.9302   3.0179   3.2889   3.4685
     3.5242   3.6561   3.8405   3.9553   4.1575   4.2322   4.3099   4.7053
     4.7126   5.3408   5.7080   5.9558   5.9826   6.0331   6.1466   6.7976
     7.0408   7.1316

          k = 0.0000-0.2579 0.1485 ( 36452 PWs)   bands (ev):

   -44.1397 -44.1396 -22.2590 -22.2590 -22.1683 -22.1683 -22.0731 -22.0730
    -8.0064  -7.8293  -7.0731  -6.9410  -6.1430  -5.6310  -4.8323  -4.7566
    -4.5710  -3.9154   0.4013   0.9284   0.9712   1.0286   1.1746   1.8944
     2.0829   2.0887   2.2064   2.8314   2.9177   3.0868   3.3334   3.4688
     3.6528   3.6716   3.8969   3.9083   4.1899   4.2273   4.2569   4.6982
     4.7027   4.9124   5.8934   5.9788   6.0181   6.1386   6.4259   6.6207
     6.8594   7.0595

          k = 0.0000-0.2579-0.2971 ( 36454 PWs)   bands (ev):

   -44.1396 -44.1396 -22.2590 -22.2590 -22.1683 -22.1683 -22.0730 -22.0730
    -7.9280  -7.9280  -6.9948  -6.9948  -5.9330  -5.9330  -4.7939  -4.7939
    -4.2049  -4.2049   0.6316   0.6316   1.0627   1.0627   1.3656   1.3656
     2.1387   2.1387   2.6342   2.6342   2.8813   2.8813   3.4517   3.4517
     3.7779   3.7779   4.0486   4.0486   4.1198   4.1198   4.3723   4.3723
     4.6944   4.6944   5.9571   5.9571   6.2700   6.2700   6.4908   6.4908
     6.8332   6.8332

          k = 1.5243 0.0000 0.0000 ( 36439 PWs)   bands (ev):

   -44.1384 -44.1384 -22.2524 -22.2524 -22.2010 -22.2010 -22.0693 -22.0692
    -7.5501  -7.3105  -6.9020  -6.7575  -5.9693  -5.2543  -5.0378  -4.6702
    -4.5821  -4.4673   0.1762   0.5675   0.6611   1.1265   1.1982   1.6057
     1.6754   1.7140   1.9504   2.0509   2.2173   2.3393   2.4865   3.2477
     3.4630   3.4722   3.5385   3.6460   3.7042   3.7465   3.8500   4.1391
     4.3195   4.9759   5.6968   5.9915   6.2826   6.7983   6.8549   6.9414
     7.3160   7.5287

          k = 1.5243 0.0000 0.1485 ( 36476 PWs)   bands (ev):

   -44.1384 -44.1384 -22.2524 -22.2524 -22.2010 -22.2010 -22.0693 -22.0692
    -7.5238  -7.3595  -6.8688  -6.7719  -5.8977  -5.4470  -4.8919  -4.6309
    -4.6287  -4.4790   0.2273   0.5728   0.7513   0.9020   1.2049   1.3548
     1.6905   1.7178   1.9744   2.0259   2.4032   2.5088   2.8385   3.1943
     3.4115   3.4769   3.5059   3.5625   3.6660   3.7285   3.8653   4.1386
     4.1727   4.5283   6.1216   6.2812   6.3158   6.6856   6.8443   6.9858
     7.1350   7.5036

          k = 1.5243 0.0000-0.2971 ( 36508 PWs)   bands (ev):

   -44.1384 -44.1384 -22.2524 -22.2524 -22.2010 -22.2010 -22.0692 -22.0692
    -7.4515  -7.4515  -6.8124  -6.8124  -5.7049  -5.7049  -4.7405  -4.7405
    -4.5393  -4.5393   0.3915   0.3915   0.9764   0.9764   1.0142   1.0142
     1.7053   1.7053   1.9922   1.9922   2.7729   2.7729   3.0697   3.0697
     3.3697   3.3697   3.4825   3.4825   3.6777   3.6777   3.8913   3.8913
     4.2290   4.2290   6.3573   6.3573   6.6893   6.6893   6.8146   6.8146
     7.2398   7.2398

          k =-0.2541-0.4514 0.0000 ( 36444 PWs)   bands (ev):

   -44.1393 -44.1393 -22.2571 -22.2571 -22.1779 -22.1779 -22.0720 -22.0719
    -7.9051  -7.6579  -7.0482  -6.8782  -6.1704  -5.3763  -4.8876  -4.7693
    -4.6873  -3.9731   0.4225   0.9089   1.0666   1.2384   1.3422   1.6617
     1.7154   1.7608   1.9032   2.4073   2.4850   3.2417   3.3882   3.4680
     3.4744   3.7120   3.7574   3.8452   3.9008   4.0853   4.1051   4.2142
     4.3127   4.6717   6.0698   6.1050   6.3526   6.5766   6.6389   6.8324
     6.8367   7.0211

          k =-0.2541-0.4514 0.1485 ( 36461 PWs)   bands (ev):

   -44.1393 -44.1393 -22.2571 -22.2571 -22.1779 -22.1779 -22.0720 -22.0719
    -7.8773  -7.7068  -7.0101  -6.8949  -6.0941  -5.5816  -4.8209  -4.7093
    -4.6022  -4.0592   0.4826   0.8971   0.9529   1.2782   1.3406   1.3996
     1.7920   1.8496   2.2754   2.4136   2.4690   2.9634   3.3443   3.3897
     3.5068   3.5419   3.7365   3.8702   3.9028   3.9696   4.2263   4.2753
     4.6869   4.7972   5.8572   6.0546   6.1571   6.3739   6.5883   6.7414
     7.1357   7.2284

          k =-0.2541-0.4514-0.2971 ( 36490 PWs)   bands (ev):

   -44.1393 -44.1393 -22.2571 -22.2571 -22.1779 -22.1779 -22.0719 -22.0719
    -7.8016  -7.8016  -6.9430  -6.9430  -5.8797  -5.8797  -4.7622  -4.7622
    -4.2933  -4.2933   0.6564   0.6564   1.0952   1.0952   1.3359   1.3359
     1.9404   1.9404   2.4204   2.4204   2.6595   2.6595   3.2542   3.2542
     3.4139   3.4139   3.8528   3.8528   3.9870   3.9870   4.2513   4.2513
     5.0133   5.0133   5.7072   5.7072   6.1727   6.1727   6.6408   6.6408
     7.3471   7.3471

          k = 0.0000-0.3869 0.0000 ( 36477 PWs)   bands (ev):

   -44.1397 -44.1396 -22.2590 -22.2590 -22.1683 -22.1682 -22.0731 -22.0730
    -8.0288  -7.7769  -7.1113  -6.9253  -6.2349  -5.4267  -4.8789  -4.7894
    -4.7300  -3.8055   0.3505   0.7897   1.1031   1.2665   1.4276   1.7057
     2.0624   2.2384   2.2829   2.8236   2.9356   3.0466   3.1563   3.2271
     3.5282   3.6253   3.8125   3.9550   4.0163   4.0562   4.3102   4.6836
     4.7034   5.3171   5.7587   6.0016   6.0303   6.0837   6.2042   6.7459
     7.0407   7.0733

          k = 0.0000-0.3869 0.1485 ( 36452 PWs)   bands (ev):

   -44.1397 -44.1396 -22.2590 -22.2590 -22.1683 -22.1683 -22.0731 -22.0730
    -8.0006  -7.8267  -7.0694  -6.9432  -6.1594  -5.6370  -4.8471  -4.7515
    -4.5675  -3.9156   0.4216   0.9485   1.0094   1.1671   1.2501   1.9089
     2.0830   2.1332   2.2055   2.8481   2.9249   3.0373   3.1735   3.3334
     3.5248   3.7362   3.8707   3.9235   4.0599   4.0984   4.2178   4.6824
     4.6989   4.9110   5.9434   6.0239   6.0530   6.1532   6.4404   6.5842
     6.8620   7.0118

          k = 0.0000-0.3869-0.2971 ( 36454 PWs)   bands (ev):

   -44.1396 -44.1396 -22.2590 -22.2590 -22.1683 -22.1683 -22.0730 -22.0730
    -7.9233  -7.9233  -6.9954  -6.9954  -5.9432  -5.9432  -4.7987  -4.7987
    -4.2033  -4.2033   0.6519   0.6519   1.1825   1.1825   1.3832   1.3832
     2.1386   2.1386   2.6570   2.6570   2.8929   2.8929   3.2157   3.2157
     3.8249   3.8249   4.0094   4.0094   4.0280   4.0280   4.3388   4.3388
     4.6888   4.6888   5.9694   5.9694   6.2983   6.2983   6.4987   6.4987
     6.7967   6.7967

          k =-2.0325 0.0000 0.0000 ( 36452 PWs)   bands (ev):

   -44.1397 -44.1396 -22.2590 -22.2590 -22.1683 -22.1682 -22.0731 -22.0730
    -8.0263  -7.7764  -7.1088  -6.9259  -6.2431  -5.4289  -4.8867  -4.7849
    -4.7286  -3.8060   0.3564   0.7944   1.2283   1.2398   1.4373   1.7495
     2.0624   2.2378   2.2835   2.8320   2.9376   3.0452   3.0632   3.1085
     3.5137   3.7789   3.8008   3.8684   3.9569   3.9813   4.3103   4.6716
     4.7027   5.3096   5.7794   6.0096   6.0695   6.0995   6.2222   6.7026
     7.0407   7.0629

          k =-2.0325 0.0000 0.1485 ( 36456 PWs)   bands (ev):

   -44.1396 -44.1396 -22.2590 -22.2590 -22.1683 -22.1683 -22.0731 -22.0730
    -7.9981  -7.8256  -7.0680  -6.9438  -6.1662  -5.6394  -4.8528  -4.7498
    -4.5661  -3.9157   0.4267   0.9565   1.0227   1.2488   1.2817   1.9157
     2.0831   2.1553   2.2051   2.8554   2.9277   2.9719   3.0548   3.3166
     3.4983   3.8334   3.8597   3.9407   3.9670   4.0124   4.2136   4.6757
     4.6979   4.9110   5.9677   6.0443   6.0585   6.1594   6.4433   6.5576
     6.8630   6.9981

          k =-2.0325 0.0000-0.2971 ( 36460 PWs)   bands (ev):

   -44.1396 -44.1396 -22.2590 -22.2590 -22.1683 -22.1683 -22.0730 -22.0730
    -7.9214  -7.9214  -6.9957  -6.9957  -5.9474  -5.9474  -4.8007  -4.8007
    -4.2026  -4.2026   0.6569   0.6569   1.2451   1.2451   1.3920   1.3920
     2.1385   2.1385   2.6602   2.6602   2.8979   2.8979   3.1077   3.1077
     3.8948   3.8948   3.9240   3.9240   4.0193   4.0193   4.3270   4.3270
     4.6865   4.6865   5.9703   5.9703   6.3085   6.3085   6.5021   6.5021
     6.7804   6.7804

     the Fermi energy is     5.4319 ev

!    total energy              =   -4240.94938906 Ry

     total all-electron energy =   -150287.643084 Ry
     estimated scf accuracy    <          4.8E-12 Ry
     smearing contrib. (-TS)   =       0.00000277 Ry
     internal energy E=F+TS    =   -4240.94939182 Ry

     The total energy is F=E-TS. E is the sum of the following terms:
     one-electron contribution =    -167.77437136 Ry
     hartree contribution      =     117.35410427 Ry
     xc contribution           =    -201.55371011 Ry
     ewald contribution        =    -221.44645836 Ry
     one-center paw contrib.   =   -3767.52895626 Ry

     convergence has been achieved in  18 iterations

     Forces acting on atoms (cartesian axes, Ry/au):

     atom    1 type  1   force =     0.00000000    0.00903113    0.00000000
     atom    2 type  1   force =     0.00000000   -0.00903113    0.00000000
     atom    3 type  2   force =     0.00000000   -0.00003523    0.00000000
     atom    4 type  2   force =     0.00000000    0.00003523    0.00000000
     atom    5 type  2   force =     0.00000000   -0.00207187   -0.00093844
     atom    6 type  2   force =     0.00000000    0.00207187    0.00093844
     atom    7 type  2   force =     0.00000000   -0.00207187    0.00093844
     atom    8 type  2   force =     0.00000000    0.00207187   -0.00093844
     atom    9 type  2   force =     0.00000000   -0.01499827   -0.01641854
     atom   10 type  2   force =     0.00000000    0.01499827    0.01641854
     atom   11 type  2   force =     0.00000000   -0.01499827    0.01641854
     atom   12 type  2   force =     0.00000000    0.01499827   -0.01641854

     Total force =     0.046496     Total SCF correction =     0.000003


     Computing stress (Cartesian axis) and pressure

          total   stress  (Ry/bohr**3)                   (kbar)     P=        3.79
   0.00002522   0.00000000   0.00000000            3.71        0.00        0.00
   0.00000000   0.00001687   0.00000000            0.00        2.48        0.00
   0.00000000   0.00000000   0.00003517            0.00        0.00        5.17

 
     init_run     :     37.02s CPU     38.30s WALL (       1 calls)
     electrons    :   1812.58s CPU   1829.04s WALL (       1 calls)
     forces       :      6.70s CPU      6.94s WALL (       1 calls)
     stress       :     40.53s CPU     41.13s WALL (       1 calls)

     Called by init_run:
     wfcinit      :     32.10s CPU     32.34s WALL (       1 calls)
     potinit      :      1.52s CPU      1.57s WALL (       1 calls)
     hinit0       :      1.72s CPU      2.40s WALL (       1 calls)

     Called by electrons:
     c_bands      :   1491.27s CPU   1497.91s WALL (      19 calls)
     sum_band     :    288.27s CPU    293.84s WALL (      19 calls)
     v_of_rho     :      8.43s CPU      9.04s WALL (      19 calls)
     newd         :     17.48s CPU     21.33s WALL (      19 calls)
     PAW_pot      :      6.70s CPU      6.71s WALL (      19 calls)
     mix_rho      :      1.51s CPU      1.55s WALL (      19 calls)

     Called by c_bands:
     init_us_2    :     13.65s CPU     13.72s WALL (    2583 calls)
     cegterg      :   1411.37s CPU   1417.30s WALL (    1197 calls)

     Called by *egterg:
     cdiaghg      :     29.12s CPU     29.24s WALL (    8313 calls)
     h_psi        :   1221.34s CPU   1226.97s WALL (    8439 calls)
     s_psi        :     52.50s CPU     52.57s WALL (    8439 calls)
     g_psi        :      2.37s CPU      2.38s WALL (    7179 calls)

     Called by h_psi:
     h_psi:calbec :     45.25s CPU     45.32s WALL (    8439 calls)
     vloc_psi     :   1120.00s CPU   1125.41s WALL (    8439 calls)
     add_vuspsi   :     51.94s CPU     52.02s WALL (    8439 calls)

     General routines
     calbec       :     59.19s CPU     59.29s WALL (    9951 calls)
     fft          :      7.36s CPU      8.24s WALL (     271 calls)
     ffts         :      0.18s CPU      0.18s WALL (      38 calls)
     fftw         :   1126.16s CPU   1131.46s WALL (  444166 calls)
     interpolate  :      0.62s CPU      0.62s WALL (      19 calls)
 
     Parallel routines
     fft_scatt_xy :    258.30s CPU    259.68s WALL (  444475 calls)
     fft_scatt_yz :    339.58s CPU    341.25s WALL (  444475 calls)
 
     PWSCF        :  31m38.59s CPU  32m 0.66s WALL

 
   This run was terminated on:  15:18:17  19Nov2021            

=------------------------------------------------------------------------------=
   JOB DONE.
=------------------------------------------------------------------------------=
