
     Program PWSCF v.6.7MaX starts on 19Nov2021 at 14:46:17 

     This program is part of the open-source Quantum ESPRESSO suite
     for quantum simulation of materials; please cite
         "P. Giannozzi et al., J. Phys.:Condens. Matter 21 395502 (2009);
         "P. Giannozzi et al., J. Phys.:Condens. Matter 29 465901 (2017);
          URL http://www.quantum-espresso.org", 
     in publications or presentations arising from this work. More details at
     http://www.quantum-espresso.org/quote

     Parallel version (MPI), running on    10 processors

     MPI processes distributed on     1 nodes
     R & G space division:  proc/nbgrp/npool/nimage =      10
     Waiting for input...
     Reading input from standard input

     Current dimensions of program PWSCF are:
     Max number of different atomic species (ntypx) = 10
     Max number of k-points (npk) =  40000
     Max angular momentum in pseudopotentials (lmaxx) =  3
     file Zr.pbe-spn-kjpaw_psl.1.0.0.UPF: wavefunction(s)  4S 4P renormalized
     file Te.pbe-n-kjpaw_psl.1.0.0.UPF: wavefunction(s)  5S 5P renormalized

     Subspace diagonalization in iterative solution of the eigenvalue problem:
     a serial algorithm will be used

     Message from routine setup:
     using ibrav=0 with symmetry is DISCOURAGED, use correct ibrav instead
 
     Parallelization info
     --------------------
     sticks:   dense  smooth     PW     G-vecs:    dense   smooth      PW
     Min         734     293     87               115340    29174    4753
     Max         735     295     88               115345    29176    4760
     Sum        7345    2937    873              1153415   291749   47557
 


     bravais-lattice index     =            0
     lattice parameter (alat)  =      15.5510  a.u.
     unit-cell volume          =    3018.5011 (a.u.)^3
     number of atoms/cell      =           12
     number of atomic types    =            2
     number of electrons       =        84.00
     number of Kohn-Sham states=           50
     kinetic-energy cutoff     =      80.0000  Ry
     charge density cutoff     =     800.0000  Ry
     scf convergence threshold =      1.0E-10
     mixing beta               =       0.7000
     number of iterations used =            8  plain     mixing
     Exchange-correlation= SLA  PW   PBX  PBC
                           (   1   4   3   4   0   0   0)

     celldm(1)=  15.551040  celldm(2)=   0.000000  celldm(3)=   0.000000
     celldm(4)=   0.000000  celldm(5)=   0.000000  celldm(6)=   0.000000

     crystal axes: (cart. coord. in units of alat)
               a(1) = (   0.246007  -0.969268   0.000000 )  
               a(2) = (   0.246007   0.969268   0.000000 )  
               a(3) = (   0.000000   0.000000   1.683031 )  

     reciprocal axes: (cart. coord. in units 2 pi/alat)
               b(1) = (  2.032465 -0.515853  0.000000 )  
               b(2) = (  2.032465  0.515853  0.000000 )  
               b(3) = (  0.000000  0.000000  0.594166 )  


     PseudoPot. # 1 for Zr read from file:
     pseudo/Zr.pbe-spn-kjpaw_psl.1.0.0.UPF
     MD5 check sum: 02112c41713a0468aff2bb39ef194e36
     Pseudo is Projector augmented-wave + core cor, Zval = 12.0
     Generated using &quot;atomic&quot; code by A. Dal Corso  v.6.2.2
     Shape of augmentation charge: PSQ
     Using radial grid of 1225 points,  6 beta functions with: 
                l(1) =   0
                l(2) =   0
                l(3) =   1
                l(4) =   1
                l(5) =   2
                l(6) =   2
     Q(r) pseudized with 0 coefficients 


     PseudoPot. # 2 for Te read from file:
     pseudo/Te.pbe-n-kjpaw_psl.1.0.0.UPF
     MD5 check sum: 66247bff2bd9dbf220fbb0bf5ab56e9d
     Pseudo is Projector augmented-wave + core cor, Zval =  6.0
     Generated using &quot;atomic&quot; code by A. Dal Corso  v.6.3
     Shape of augmentation charge: PSQ
     Using radial grid of 1245 points,  6 beta functions with: 
                l(1) =   0
                l(2) =   0
                l(3) =   1
                l(4) =   1
                l(5) =   2
                l(6) =   2
     Q(r) pseudized with 0 coefficients 


     atomic species   valence    mass     pseudopotential
        Zr            12.00    91.22000     Zr( 1.00)
        Te             6.00   127.60000     Te( 1.00)

      8 Sym. Ops., with inversion, found ( 4 have fractional translation)



   Cartesian axes

     site n.     atom                  positions (alat units)
         1           Zr  tau(   1) = (   0.0000000   0.6035448   0.4207578  )
         2           Zr  tau(   2) = (   0.2460067   0.3657233   1.2622733  )
         3           Te  tau(   3) = (   0.2460067   0.3342069   0.4207578  )
         4           Te  tau(   4) = (   0.0000000   0.6350612   1.2622733  )
         5           Te  tau(   5) = (   0.2460067   0.8107647   0.2527042  )
         6           Te  tau(   6) = (   0.0000000   0.1585035   1.4303268  )
         7           Te  tau(   7) = (   0.2460067   0.8107647   0.5888113  )
         8           Te  tau(   8) = (   0.0000000   0.1585035   1.0942198  )
         9           Te  tau(   9) = (   0.0000000   0.4185052   0.7343298  )
        10           Te  tau(  10) = (   0.2460067   0.5507629   0.9487013  )
        11           Te  tau(  11) = (   0.0000000   0.4185052   0.1071857  )
        12           Te  tau(  12) = (   0.2460067   0.5507629   1.5758453  )

     number of k points=    63  Methfessel-Paxton smearing, width (Ry)=  0.0030
                       cart. coord. in units 2pi/alat
        k(    1) = (   0.0000000   0.0000000   0.0000000), wk =   0.0078125
        k(    2) = (   0.0000000   0.0000000   0.1485415), wk =   0.0156250
        k(    3) = (   0.0000000   0.0000000  -0.2970830), wk =   0.0078125
        k(    4) = (   0.2540581   0.0644816   0.0000000), wk =   0.0312500
        k(    5) = (   0.2540581   0.0644816   0.1485415), wk =   0.0625000
        k(    6) = (   0.2540581   0.0644816  -0.2970830), wk =   0.0312500
        k(    7) = (   0.5081162   0.1289633   0.0000000), wk =   0.0312500
        k(    8) = (   0.5081162   0.1289633   0.1485415), wk =   0.0625000
        k(    9) = (   0.5081162   0.1289633  -0.2970830), wk =   0.0312500
        k(   10) = (   0.7621743   0.1934449   0.0000000), wk =   0.0312500
        k(   11) = (   0.7621743   0.1934449   0.1485415), wk =   0.0625000
        k(   12) = (   0.7621743   0.1934449  -0.2970830), wk =   0.0312500
        k(   13) = (  -1.0162324  -0.2579266   0.0000000), wk =   0.0156250
        k(   14) = (  -1.0162324  -0.2579266   0.1485415), wk =   0.0312500
        k(   15) = (  -1.0162324  -0.2579266  -0.2970830), wk =   0.0156250
        k(   16) = (   0.5081162   0.0000000   0.0000000), wk =   0.0156250
        k(   17) = (   0.5081162   0.0000000   0.1485415), wk =   0.0312500
        k(   18) = (   0.5081162   0.0000000  -0.2970830), wk =   0.0156250
        k(   19) = (   0.7621743   0.0644816   0.0000000), wk =   0.0312500
        k(   20) = (   0.7621743   0.0644816   0.1485415), wk =   0.0625000
        k(   21) = (   0.7621743   0.0644816  -0.2970830), wk =   0.0312500
        k(   22) = (   1.0162324   0.1289633   0.0000000), wk =   0.0312500
        k(   23) = (   1.0162324   0.1289633   0.1485415), wk =   0.0625000
        k(   24) = (   1.0162324   0.1289633  -0.2970830), wk =   0.0312500
        k(   25) = (  -0.7621743  -0.3224082   0.0000000), wk =   0.0312500
        k(   26) = (  -0.7621743  -0.3224082   0.1485415), wk =   0.0625000
        k(   27) = (  -0.7621743  -0.3224082  -0.2970830), wk =   0.0312500
        k(   28) = (  -0.5081162  -0.2579266   0.0000000), wk =   0.0312500
        k(   29) = (  -0.5081162  -0.2579266   0.1485415), wk =   0.0625000
        k(   30) = (  -0.5081162  -0.2579266  -0.2970830), wk =   0.0312500
        k(   31) = (  -0.2540581  -0.1934449   0.0000000), wk =   0.0312500
        k(   32) = (  -0.2540581  -0.1934449   0.1485415), wk =   0.0625000
        k(   33) = (  -0.2540581  -0.1934449  -0.2970830), wk =   0.0312500
        k(   34) = (   0.0000000  -0.1289633   0.0000000), wk =   0.0156250
        k(   35) = (   0.0000000  -0.1289633   0.1485415), wk =   0.0312500
        k(   36) = (   0.0000000  -0.1289633  -0.2970830), wk =   0.0156250
        k(   37) = (   1.0162324   0.0000000   0.0000000), wk =   0.0156250
        k(   38) = (   1.0162324   0.0000000   0.1485415), wk =   0.0312500
        k(   39) = (   1.0162324   0.0000000  -0.2970830), wk =   0.0156250
        k(   40) = (   1.2702905   0.0644816   0.0000000), wk =   0.0312500
        k(   41) = (   1.2702905   0.0644816   0.1485415), wk =   0.0625000
        k(   42) = (   1.2702905   0.0644816  -0.2970830), wk =   0.0312500
        k(   43) = (  -0.5081162  -0.3868899   0.0000000), wk =   0.0312500
        k(   44) = (  -0.5081162  -0.3868899   0.1485415), wk =   0.0625000
        k(   45) = (  -0.5081162  -0.3868899  -0.2970830), wk =   0.0312500
        k(   46) = (  -0.2540581  -0.3224082   0.0000000), wk =   0.0312500
        k(   47) = (  -0.2540581  -0.3224082   0.1485415), wk =   0.0625000
        k(   48) = (  -0.2540581  -0.3224082  -0.2970830), wk =   0.0312500
        k(   49) = (   0.0000000  -0.2579266   0.0000000), wk =   0.0156250
        k(   50) = (   0.0000000  -0.2579266   0.1485415), wk =   0.0312500
        k(   51) = (   0.0000000  -0.2579266  -0.2970830), wk =   0.0156250
        k(   52) = (   1.5243485   0.0000000   0.0000000), wk =   0.0156250
        k(   53) = (   1.5243485   0.0000000   0.1485415), wk =   0.0312500
        k(   54) = (   1.5243485   0.0000000  -0.2970830), wk =   0.0156250
        k(   55) = (  -0.2540581  -0.4513715   0.0000000), wk =   0.0312500
        k(   56) = (  -0.2540581  -0.4513715   0.1485415), wk =   0.0625000
        k(   57) = (  -0.2540581  -0.4513715  -0.2970830), wk =   0.0312500
        k(   58) = (   0.0000000  -0.3868899   0.0000000), wk =   0.0156250
        k(   59) = (   0.0000000  -0.3868899   0.1485415), wk =   0.0312500
        k(   60) = (   0.0000000  -0.3868899  -0.2970830), wk =   0.0156250
        k(   61) = (  -2.0324647   0.0000000   0.0000000), wk =   0.0078125
        k(   62) = (  -2.0324647   0.0000000   0.1485415), wk =   0.0156250
        k(   63) = (  -2.0324647   0.0000000  -0.2970830), wk =   0.0078125

     Dense  grid:  1153415 G-vectors     FFT dimensions: ( 144, 144, 240)

     Smooth grid:   291749 G-vectors     FFT dimensions: (  90,  90, 150)

     Estimated max dynamical RAM per process >     657.19 MB

     Estimated total dynamical RAM >       6.42 GB

     Initial potential from superposition of free atoms

     starting charge   83.99353, renormalised to   84.00000
     Starting wfcs are   66 randomized atomic wfcs
     Checking if some PAW data can be deallocated... 

     total cpu time spent up to now is       42.5 secs

     Self-consistent Calculation

     iteration #  1     ecut=    80.00 Ry     beta= 0.70
     Davidson diagonalization with overlap
     ethr =  1.00E-02,  avg # of iterations =  2.1

     Threshold (ethr) on eigenvalues was too large:
     Diagonalizing with lowered threshold

     Davidson diagonalization with overlap
     ethr =  4.32E-04,  avg # of iterations =  4.0

     total cpu time spent up to now is      200.0 secs

     total energy              =   -4240.72709249 Ry
     estimated scf accuracy    <       0.43928076 Ry

     iteration #  2     ecut=    80.00 Ry     beta= 0.70
     Davidson diagonalization with overlap
     ethr =  5.23E-04,  avg # of iterations =  7.9

     total cpu time spent up to now is      312.4 secs

     total energy              =   -4240.63201459 Ry
     estimated scf accuracy    <       2.03425760 Ry

     iteration #  3     ecut=    80.00 Ry     beta= 0.70
     Davidson diagonalization with overlap
     ethr =  5.23E-04,  avg # of iterations =  5.3

     total cpu time spent up to now is      405.6 secs

     total energy              =   -4240.93715588 Ry
     estimated scf accuracy    <       0.00862189 Ry

     iteration #  4     ecut=    80.00 Ry     beta= 0.70
     Davidson diagonalization with overlap
     c_bands:  1 eigenvalues not converged
     c_bands:  1 eigenvalues not converged
     c_bands:  2 eigenvalues not converged
     c_bands:  2 eigenvalues not converged
     c_bands:  2 eigenvalues not converged
     c_bands:  2 eigenvalues not converged
     c_bands:  1 eigenvalues not converged
     c_bands:  2 eigenvalues not converged
     c_bands:  1 eigenvalues not converged
     c_bands:  1 eigenvalues not converged
     c_bands:  2 eigenvalues not converged
     c_bands:  2 eigenvalues not converged
     c_bands:  1 eigenvalues not converged
     c_bands:  4 eigenvalues not converged
     c_bands:  2 eigenvalues not converged
     c_bands:  1 eigenvalues not converged
     c_bands:  2 eigenvalues not converged
     c_bands:  1 eigenvalues not converged
     c_bands:  4 eigenvalues not converged
     c_bands:  1 eigenvalues not converged
     c_bands:  1 eigenvalues not converged
     c_bands:  1 eigenvalues not converged
     c_bands:  1 eigenvalues not converged
     c_bands:  1 eigenvalues not converged
     c_bands:  1 eigenvalues not converged
     ethr =  1.03E-05,  avg # of iterations = 17.8

     total cpu time spent up to now is      585.6 secs

     total energy              =   -4240.94801597 Ry
     estimated scf accuracy    <       0.05108586 Ry

     iteration #  5     ecut=    80.00 Ry     beta= 0.70
     Davidson diagonalization with overlap
     c_bands:  1 eigenvalues not converged
     ethr =  1.03E-05,  avg # of iterations =  7.3

     total cpu time spent up to now is      679.9 secs

     total energy              =   -4240.94989969 Ry
     estimated scf accuracy    <       0.00901026 Ry

     iteration #  6     ecut=    80.00 Ry     beta= 0.70
     Davidson diagonalization with overlap
     ethr =  1.03E-05,  avg # of iterations =  2.9

     total cpu time spent up to now is      754.4 secs

     total energy              =   -4240.95060538 Ry
     estimated scf accuracy    <       0.00117017 Ry

     iteration #  7     ecut=    80.00 Ry     beta= 0.70
     Davidson diagonalization with overlap
     ethr =  1.39E-06,  avg # of iterations = 11.3

     total cpu time spent up to now is      875.5 secs

     total energy              =   -4240.95117598 Ry
     estimated scf accuracy    <       0.00121275 Ry

     iteration #  8     ecut=    80.00 Ry     beta= 0.70
     Davidson diagonalization with overlap
     ethr =  1.39E-06,  avg # of iterations =  2.1

     total cpu time spent up to now is      944.9 secs

     total energy              =   -4240.95121731 Ry
     estimated scf accuracy    <       0.00016740 Ry

     iteration #  9     ecut=    80.00 Ry     beta= 0.70
     Davidson diagonalization with overlap
     ethr =  1.99E-07,  avg # of iterations =  6.3

     total cpu time spent up to now is     1037.3 secs

     total energy              =   -4240.95127455 Ry
     estimated scf accuracy    <       0.00002796 Ry

     iteration # 10     ecut=    80.00 Ry     beta= 0.70
     Davidson diagonalization with overlap
     ethr =  3.33E-08,  avg # of iterations =  2.4

     total cpu time spent up to now is     1109.0 secs

     total energy              =   -4240.95127729 Ry
     estimated scf accuracy    <       0.00000277 Ry

     iteration # 11     ecut=    80.00 Ry     beta= 0.70
     Davidson diagonalization with overlap
     ethr =  3.30E-09,  avg # of iterations =  6.8

     total cpu time spent up to now is     1210.6 secs

     total energy              =   -4240.95127913 Ry
     estimated scf accuracy    <       0.00000129 Ry

     iteration # 12     ecut=    80.00 Ry     beta= 0.70
     Davidson diagonalization with overlap
     ethr =  1.53E-09,  avg # of iterations =  2.0

     total cpu time spent up to now is     1278.9 secs

     total energy              =   -4240.95127916 Ry
     estimated scf accuracy    <       0.00000022 Ry

     iteration # 13     ecut=    80.00 Ry     beta= 0.70
     Davidson diagonalization with overlap
     ethr =  2.58E-10,  avg # of iterations =  6.1

     total cpu time spent up to now is     1373.1 secs

     total energy              =   -4240.95127925 Ry
     estimated scf accuracy    <       0.00000005 Ry

     iteration # 14     ecut=    80.00 Ry     beta= 0.70
     Davidson diagonalization with overlap
     ethr =  5.69E-11,  avg # of iterations =  1.8

     total cpu time spent up to now is     1440.9 secs

     total energy              =   -4240.95127925 Ry
     estimated scf accuracy    <       0.00000002 Ry

     iteration # 15     ecut=    80.00 Ry     beta= 0.70
     Davidson diagonalization with overlap
     ethr =  2.60E-11,  avg # of iterations =  4.0

     total cpu time spent up to now is     1517.4 secs

     total energy              =   -4240.95127925 Ry
     estimated scf accuracy    <          1.0E-10 Ry

     iteration # 16     ecut=    80.00 Ry     beta= 0.70
     Davidson diagonalization with overlap
     ethr =  1.23E-13,  avg # of iterations = 12.4

     total cpu time spent up to now is     1673.8 secs

     total energy              =   -4240.95127925 Ry
     estimated scf accuracy    <          1.5E-09 Ry

     iteration # 17     ecut=    80.00 Ry     beta= 0.70
     Davidson diagonalization with overlap
     ethr =  1.23E-13,  avg # of iterations =  5.3

     total cpu time spent up to now is     1758.7 secs

     total energy              =   -4240.95127925 Ry
     estimated scf accuracy    <          2.4E-10 Ry

     iteration # 18     ecut=    80.00 Ry     beta= 0.70
     Davidson diagonalization with overlap
     ethr =  1.23E-13,  avg # of iterations =  5.9

     total cpu time spent up to now is     1834.1 secs

     End of self-consistent calculation

          k = 0.0000 0.0000 0.0000 ( 36359 PWs)   bands (ev):

   -44.1380 -44.1380 -22.2588 -22.2588 -22.1676 -22.1676 -22.0708 -22.0706
    -8.0002  -7.7166  -7.1286  -6.9065  -6.2145  -5.4144  -4.8390  -4.8175
    -4.7675  -3.8104   0.2919   0.7607   0.7975   1.1382   1.3852   1.5358
     2.1127   2.2955   2.3137   2.7716   2.9251   3.0028   3.3081   3.3450
     3.7615   3.8616   4.0251   4.0811   4.2961   4.3398   4.3990   4.7008
     4.7724   5.4291   5.6383   5.8641   5.9112   5.9288   6.0434   6.7990
     7.0278   7.2761

          k = 0.0000 0.0000 0.1485 ( 36415 PWs)   bands (ev):

   -44.1380 -44.1380 -22.2588 -22.2588 -22.1676 -22.1676 -22.0707 -22.0706
    -7.9698  -7.7762  -7.0738  -6.9252  -6.1444  -5.6323  -4.8121  -4.7752
    -4.5933  -3.9235   0.3645   0.8294   0.9070   0.9761   1.0950   1.8845
     2.0355   2.1351   2.2734   2.8058   2.9103   3.0876   3.4025   3.4214
     3.7425   3.9174   4.0003   4.0884   4.2279   4.3664   4.4129   4.6985
     4.7343   4.9412   5.8332   5.9095   5.9128   6.0975   6.4117   6.6255
     6.8444   7.1592

          k = 0.0000 0.0000-0.2971 ( 36410 PWs)   bands (ev):

   -44.1380 -44.1380 -22.2588 -22.2588 -22.1676 -22.1676 -22.0707 -22.0707
    -7.8856  -7.8856  -6.9836  -6.9836  -5.9371  -5.9371  -4.7937  -4.7937
    -4.2182  -4.2182   0.5885   0.5885   0.9491   0.9491   1.3461   1.3461
     2.1963   2.1963   2.6045   2.6045   2.8667   2.8667   3.5494   3.5494
     3.9138   3.9138   4.0647   4.0647   4.3334   4.3334   4.4052   4.4052
     4.7013   4.7013   5.9042   5.9042   6.2251   6.2251   6.4665   6.4665
     6.8939   6.8939

          k = 0.2541 0.0645 0.0000 ( 36396 PWs)   bands (ev):

   -44.1376 -44.1376 -22.2569 -22.2569 -22.1773 -22.1772 -22.0696 -22.0695
    -7.8790  -7.5991  -7.0608  -6.8581  -6.1538  -5.3675  -4.8701  -4.7734
    -4.7228  -3.9744   0.3761   0.8808   0.9242   1.1318   1.2519   1.4577
     1.6596   1.8137   1.8191   2.5791   2.6054   3.2201   3.2602   3.7183
     3.7626   3.7714   3.8519   3.8529   4.0480   4.2515   4.3168   4.3556
     4.4835   4.5673   5.8684   5.9785   6.1918   6.5518   6.6151   6.6662
     7.0258   7.2004

          k = 0.2541 0.0645 0.1485 ( 36423 PWs)   bands (ev):

   -44.1376 -44.1376 -22.2569 -22.2569 -22.1773 -22.1773 -22.0696 -22.0695
    -7.8491  -7.6582  -7.0101  -6.8750  -6.0827  -5.5797  -4.7815  -4.7324
    -4.6296  -4.0641   0.4372   0.8986   0.9289   0.9680   1.2017   1.3315
     1.7411   1.8930   2.1639   2.5720   2.5887   2.9548   3.3777   3.3859
     3.5385   3.8085   3.9477   3.9870   4.0443   4.1809   4.3657   4.3781
     4.6885   4.7880   5.8630   5.9706   6.1483   6.2512   6.3716   6.7684
     7.2146   7.2762

          k = 0.2541 0.0645-0.2971 ( 36436 PWs)   bands (ev):

   -44.1376 -44.1376 -22.2569 -22.2569 -22.1773 -22.1773 -22.0696 -22.0696
    -7.7662  -7.7662  -6.9279  -6.9279  -5.8765  -5.8765  -4.7553  -4.7553
    -4.3069  -4.3069   0.6207   0.6207   1.0313   1.0313   1.1290   1.1290
     1.9568   1.9568   2.4831   2.4831   2.6605   2.6605   3.2290   3.2290
     3.6525   3.6525   3.9718   3.9718   4.1366   4.1366   4.3850   4.3850
     4.9792   4.9792   5.7911   5.7911   6.1482   6.1482   6.4521   6.4521
     7.3857   7.3857

          k = 0.5081 0.1290 0.0000 ( 36499 PWs)   bands (ev):

   -44.1368 -44.1368 -22.2522 -22.2522 -22.2004 -22.2004 -22.0669 -22.0668
    -7.5281  -7.2558  -6.9000  -6.7348  -5.9728  -5.2559  -5.0300  -4.6601
    -4.6125  -4.4599   0.2489   0.5607   0.6563   1.1790   1.1857   1.3152
     1.6349   1.7038   1.8872   2.0948   2.1555   2.3133   2.4894   3.4037
     3.5067   3.5073   3.5819   3.5949   3.7717   3.8584   3.9581   4.1960
     4.3602   4.9696   5.6920   6.1028   6.1872   6.5996   6.6238   6.9941
     7.4509   7.5608

          k = 0.5081 0.1290 0.1485 ( 36476 PWs)   bands (ev):

   -44.1368 -44.1368 -22.2522 -22.2522 -22.2004 -22.2004 -22.0669 -22.0668
    -7.4997  -7.3159  -6.8560  -6.7483  -5.9034  -5.4530  -4.8744  -4.6440
    -4.6293  -4.4838   0.2846   0.5620   0.7593   0.9505   1.2282   1.3082
     1.4100   1.5683   2.0111   2.0944   2.3520   2.4536   2.8265   3.4036
     3.4342   3.4974   3.5128   3.6275   3.7355   3.7631   3.8560   4.2415
     4.3020   4.4845   6.1864   6.2221   6.3759   6.6001   6.6713   6.8606
     7.2951   7.5195

          k = 0.5081 0.1290-0.2971 ( 36466 PWs)   bands (ev):

   -44.1368 -44.1368 -22.2522 -22.2522 -22.2004 -22.2004 -22.0668 -22.0668
    -7.4207  -7.4207  -6.7900  -6.7900  -5.7128  -5.7128  -4.7251  -4.7251
    -4.5542  -4.5542   0.4179   0.4179   0.9980   0.9980   1.0390   1.0390
     1.4393   1.4393   2.0560   2.0560   2.6842   2.6842   3.1752   3.1752
     3.3988   3.3988   3.5651   3.5651   3.7310   3.7310   3.8621   3.8621
     4.3216   4.3216   6.4265   6.4265   6.5658   6.5658   6.8601   6.8601
     7.1813   7.1813

          k = 0.7622 0.1934 0.0000 ( 36521 PWs)   bands (ev):

   -44.1359 -44.1359 -22.2474 -22.2474 -22.2236 -22.2236 -22.0642 -22.0641
    -7.0177  -6.7506  -6.7192  -6.5603  -5.7427  -5.4406  -5.1816  -5.1299
    -4.5346  -4.4976  -0.0746   0.0185   0.3886   0.9667   0.9803   1.2828
     1.4849   1.6018   1.9920   2.1457   2.2351   2.2940   2.4312   2.8000
     2.9351   3.2620   3.3501   3.4818   3.5338   3.6683   3.7275   3.7913
     3.8216   4.5711   6.0120   6.3880   6.4537   6.8869   6.9080   6.9796
     7.3478   7.6335

          k = 0.7622 0.1934 0.1485 ( 36503 PWs)   bands (ev):

   -44.1359 -44.1359 -22.2474 -22.2474 -22.2236 -22.2236 -22.0641 -22.0641
    -6.9940  -6.8339  -6.6549  -6.5708  -5.6963  -5.4820  -5.1778  -5.1395
    -4.5266  -4.5009  -0.0583   0.1688   0.2758   0.8522   0.9748   1.2385
     1.4962   1.6125   1.9648   2.0475   2.1247   2.6050   2.6921   2.8778
     2.9076   3.0618   3.2713   3.3807   3.5204   3.6170   3.6906   3.9321
     3.9782   4.4874   5.8183   6.3892   6.6940   6.8150   6.9890   7.0075
     7.1280   7.6254

          k = 0.7622 0.1934-0.2971 ( 36522 PWs)   bands (ev):

   -44.1359 -44.1359 -22.2474 -22.2474 -22.2236 -22.2236 -22.0641 -22.0641
    -6.9275  -6.9275  -6.6021  -6.6021  -5.5871  -5.5871  -5.1610  -5.1610
    -4.5115  -4.5115   0.0711   0.0711   0.4993   0.4993   1.0823   1.0823
     1.5617   1.5617   2.0104   2.0104   2.4015   2.4015   2.8310   2.8310
     2.9789   2.9789   3.2967   3.2967   3.5978   3.5978   3.9245   3.9245
     4.0683   4.0683   6.2440   6.2440   6.4841   6.4841   7.0227   7.0227
     7.4910   7.4910

          k =-1.0162-0.2579 0.0000 ( 36506 PWs)   bands (ev):

   -44.1355 -44.1355 -22.2453 -22.2453 -22.2332 -22.2332 -22.0630 -22.0630
    -6.7323  -6.7119  -6.1061  -6.0949  -6.0679  -6.0620  -5.2651  -5.2645
    -4.4772  -4.4497  -0.0721  -0.0512   0.2411   0.2628   1.0111   1.0198
     1.4673   1.6651   2.2263   2.3894   2.4047   2.4253   2.8119   2.8178
     2.8200   2.8284   3.1956   3.2529   3.3173   3.3851   3.4602   3.6652
     3.8620   4.1424   6.6171   6.6547   6.6757   6.6915   7.0708   7.1674
     7.1711   7.2178

          k =-1.0162-0.2579 0.1485 ( 36506 PWs)   bands (ev):

   -44.1355 -44.1355 -22.2453 -22.2453 -22.2332 -22.2332 -22.0630 -22.0630
    -6.7281  -6.7136  -6.1316  -6.1239  -6.0411  -6.0366  -5.2629  -5.2625
    -4.4759  -4.4565  -0.1685  -0.1621   0.4487   0.4563   1.0068   1.0202
     1.4618   1.5937   2.0296   2.1428   2.3626   2.3970   2.6770   2.6845
     2.9341   3.0481   3.0840   3.1964   3.5523   3.5666   3.6105   3.7399
     4.0425   4.1833   6.1287   6.1479   6.5296   6.6062   7.1682   7.1829
     7.3779   7.4400

          k =-1.0162-0.2579-0.2971 ( 36528 PWs)   bands (ev):

   -44.1355 -44.1355 -22.2453 -22.2453 -22.2332 -22.2332 -22.0630 -22.0630
    -6.7196  -6.7196  -6.1442  -6.1442  -6.0236  -6.0236  -5.2605  -5.2605
    -4.4691  -4.4691  -0.2281  -0.2281   0.6644   0.6644   0.9647   0.9647
     1.5148   1.5148   1.8445   1.8445   2.3639   2.3639   2.7644   2.7644
     2.8667   2.8667   3.1746   3.1746   3.6363   3.6363   3.8018   3.8018
     4.3279   4.3279   5.7270   5.7270   6.4776   6.4776   7.1935   7.1935
     7.4996   7.4996

          k = 0.5081 0.0000 0.0000 ( 36503 PWs)   bands (ev):

   -44.1368 -44.1368 -22.2522 -22.2522 -22.2004 -22.2004 -22.0669 -22.0668
    -7.5311  -7.2563  -6.9006  -6.7321  -5.9696  -5.2557  -5.0273  -4.6540
    -4.6198  -4.4594   0.2540   0.5585   0.6522   1.1746   1.2312   1.2359
     1.6301   1.6981   1.8736   2.1008   2.1565   2.2949   2.4903   3.3959
     3.5252   3.5560   3.5626   3.5852   3.7808   3.9133   3.9411   4.2335
     4.3624   4.9635   5.6979   6.0793   6.2224   6.5620   6.5719   7.0305
     7.4610   7.5797

          k = 0.5081 0.0000 0.1485 ( 36453 PWs)   bands (ev):

   -44.1368 -44.1368 -22.2522 -22.2522 -22.2004 -22.2004 -22.0669 -22.0668
    -7.5026  -7.3173  -6.8553  -6.7457  -5.9008  -5.4525  -4.8704  -4.6453
    -4.6287  -4.4851   0.2876   0.5558   0.7603   0.9553   1.2567   1.2679
     1.3798   1.5460   2.0093   2.1061   2.3639   2.4181   2.8246   3.4125
     3.4730   3.4764   3.5087   3.6372   3.7249   3.8317   3.8384   4.2866
     4.3096   4.4731   6.1766   6.2325   6.3951   6.5537   6.6339   6.8934
     7.3128   7.5311

          k = 0.5081 0.0000-0.2971 ( 36452 PWs)   bands (ev):

   -44.1368 -44.1368 -22.2522 -22.2522 -22.2004 -22.2004 -22.0668 -22.0668
    -7.4231  -7.4231  -6.7878  -6.7878  -5.7116  -5.7116  -4.7213  -4.7213
    -4.5570  -4.5570   0.4164   0.4164   0.9995   0.9995   1.0442   1.0442
     1.4032   1.4032   2.0592   2.0592   2.6747   2.6747   3.1712   3.1712
     3.4053   3.4053   3.5738   3.5738   3.7605   3.7605   3.8570   3.8570
     4.3407   4.3407   6.4418   6.4418   6.5296   6.5296   6.8782   6.8782
     7.1821   7.1821

          k = 0.7622 0.0645 0.0000 ( 36505 PWs)   bands (ev):

   -44.1359 -44.1359 -22.2474 -22.2474 -22.2236 -22.2236 -22.0642 -22.0641
    -7.0250  -6.7481  -6.7204  -6.5542  -5.7428  -5.4379  -5.1821  -5.1291
    -4.5244  -4.5087  -0.0651   0.0153   0.4006   0.9694   0.9981   1.2965
     1.4503   1.5646   1.9577   2.1673   2.2631   2.2736   2.3670   2.7755
     2.9244   3.3087   3.3660   3.5351   3.5390   3.6478   3.6978   3.8039
     3.8309   4.5997   6.0093   6.3669   6.4653   6.8804   6.9390   6.9439
     7.3604   7.6585

          k = 0.7622 0.0645 0.1485 ( 36509 PWs)   bands (ev):

   -44.1359 -44.1359 -22.2474 -22.2474 -22.2236 -22.2236 -22.0641 -22.0641
    -7.0008  -6.8367  -6.6508  -6.5646  -5.6967  -5.4807  -5.1774  -5.1385
    -4.5194  -4.5087  -0.0503   0.1664   0.2842   0.8426   1.0017   1.2528
     1.4652   1.6107   1.9789   2.0016   2.0545   2.6125   2.6873   2.8718
     2.8861   3.0662   3.3188   3.3858   3.5618   3.6057   3.6639   3.9662
     3.9847   4.4825   5.8430   6.3668   6.7084   6.8164   6.9730   7.0367
     7.1007   7.6461

          k = 0.7622 0.0645-0.2971 ( 36472 PWs)   bands (ev):

   -44.1359 -44.1359 -22.2474 -22.2474 -22.2236 -22.2236 -22.0641 -22.0641
    -6.9330  -6.9330  -6.5960  -6.5960  -5.5874  -5.5874  -5.1599  -5.1599
    -4.5117  -4.5117   0.0794   0.0794   0.4921   0.4921   1.1035   1.1035
     1.5558   1.5558   1.9580   1.9580   2.3876   2.3876   2.8345   2.8345
     2.9612   2.9612   3.3517   3.3517   3.5949   3.5949   3.9153   3.9153
     4.0781   4.0781   6.2703   6.2703   6.4839   6.4839   6.9916   6.9916
     7.5187   7.5187

          k = 1.0162 0.1290 0.0000 ( 36514 PWs)   bands (ev):

   -44.1355 -44.1355 -22.2453 -22.2453 -22.2332 -22.2332 -22.0630 -22.0630
    -6.7323  -6.7119  -6.1059  -6.0951  -6.0679  -6.0620  -5.2651  -5.2645
    -4.4772  -4.4497  -0.0779  -0.0453   0.2377   0.2663   1.0039   1.0280
     1.4738   1.6554   2.2237   2.3931   2.4040   2.4216   2.7877   2.8107
     2.8249   2.8709   3.2150   3.2305   3.2962   3.3720   3.5084   3.6454
     3.8464   4.1576   6.6116   6.6412   6.6895   6.6993   7.0928   7.1679
     7.1731   7.2008

          k = 1.0162 0.1290 0.1485 ( 36524 PWs)   bands (ev):

   -44.1355 -44.1355 -22.2453 -22.2453 -22.2332 -22.2332 -22.0630 -22.0630
    -6.7281  -6.7136  -6.1315  -6.1240  -6.0411  -6.0366  -5.2629  -5.2625
    -4.4759  -4.4565  -0.1708  -0.1601   0.4500   0.4555   1.0072   1.0200
     1.4677   1.5878   2.0408   2.1257   2.3643   2.3936   2.6433   2.7246
     2.9399   3.0620   3.0775   3.1863   3.5223   3.5857   3.6297   3.7326
     4.0208   4.2026   6.1226   6.1582   6.5263   6.6088   7.1722   7.1825
     7.3874   7.4316

          k = 1.0162 0.1290-0.2971 ( 36516 PWs)   bands (ev):

   -44.1355 -44.1355 -22.2453 -22.2453 -22.2332 -22.2332 -22.0630 -22.0630
    -6.7196  -6.7196  -6.1442  -6.1442  -6.0236  -6.0236  -5.2605  -5.2605
    -4.4691  -4.4691  -0.2282  -0.2282   0.6648   0.6648   0.9645   0.9645
     1.5159   1.5159   1.8453   1.8453   2.3562   2.3562   2.7470   2.7470
     2.9034   2.9034   3.1600   3.1600   3.6387   3.6387   3.7999   3.7999
     4.3284   4.3284   5.7296   5.7296   6.4769   6.4769   7.1947   7.1947
     7.5007   7.5007

          k =-0.7622-0.3224 0.0000 ( 36511 PWs)   bands (ev):

   -44.1359 -44.1359 -22.2474 -22.2474 -22.2236 -22.2236 -22.0642 -22.0641
    -7.0068  -6.7550  -6.7175  -6.5687  -5.7425  -5.4443  -5.1809  -5.1312
    -4.5426  -4.4885  -0.0877   0.0232   0.3717   0.9331   0.9954   1.2660
     1.5038   1.6664   2.0622   2.1207   2.2347   2.3187   2.4557   2.8364
     2.9465   3.2150   3.3361   3.4705   3.5240   3.6307   3.6735   3.7541
     3.9219   4.5219   6.0158   6.3931   6.4746   6.8048   6.9502   7.0460
     7.3191   7.5989

          k =-0.7622-0.3224 0.1485 ( 36492 PWs)   bands (ev):

   -44.1359 -44.1359 -22.2474 -22.2474 -22.2236 -22.2236 -22.0641 -22.0641
    -6.9836  -6.8301  -6.6611  -6.5797  -5.6957  -5.4837  -5.1785  -5.1409
    -4.5321  -4.4945  -0.0695   0.1732   0.2630   0.8636   0.9469   1.2191
     1.5278   1.6210   1.9510   2.1441   2.1956   2.5984   2.6785   2.8969
     2.9212   3.0793   3.2202   3.3602   3.4744   3.5944   3.7331   3.8793
     3.9825   4.4927   5.7856   6.4249   6.6645   6.8112   6.9537   7.0567
     7.1552   7.5817

          k =-0.7622-0.3224-0.2971 ( 36508 PWs)   bands (ev):

   -44.1359 -44.1359 -22.2474 -22.2474 -22.2236 -22.2236 -22.0641 -22.0641
    -6.9194  -6.9194  -6.6111  -6.6111  -5.5867  -5.5867  -5.1627  -5.1627
    -4.5112  -4.5112   0.0597   0.0597   0.5090   0.5090   1.0572   1.0572
     1.5700   1.5700   2.0717   2.0717   2.4374   2.4374   2.8270   2.8270
     3.0048   3.0048   3.2189   3.2189   3.5953   3.5953   3.9108   3.9108
     4.0787   4.0787   6.2102   6.2102   6.4827   6.4827   7.0732   7.0732
     7.4427   7.4427

          k =-0.5081-0.2579 0.0000 ( 36480 PWs)   bands (ev):

   -44.1368 -44.1368 -22.2522 -22.2522 -22.2004 -22.2004 -22.0669 -22.0668
    -7.5206  -7.2545  -6.8990  -6.7408  -5.9809  -5.2564  -5.0365  -4.6691
    -4.6006  -4.4611   0.2369   0.5675   0.6610   1.1704   1.1894   1.4231
     1.6430   1.7270   1.9215   2.0831   2.1499   2.3498   2.4849   3.3959
     3.4234   3.5068   3.5574   3.6359   3.7316   3.7594   3.9878   4.1142
     4.3509   4.9826   5.6799   6.0944   6.1698   6.6963   6.7466   6.9081
     7.4161   7.5183

          k =-0.5081-0.2579 0.1485 ( 36485 PWs)   bands (ev):

   -44.1368 -44.1368 -22.2522 -22.2522 -22.2004 -22.2004 -22.0669 -22.0668
    -7.4926  -7.3124  -6.8581  -6.7544  -5.9095  -5.4540  -4.8838  -4.6411
    -4.6307  -4.4806   0.2774   0.5764   0.7558   0.9389   1.2182   1.3387
     1.4982   1.6310   2.0056   2.0740   2.3469   2.5083   2.8304   3.3253
     3.4401   3.4880   3.5294   3.6144   3.6272   3.7579   3.8746   4.1574
     4.2666   4.5051   6.1802   6.2224   6.3350   6.6999   6.7735   6.7907
     7.2451   7.4953

          k =-0.5081-0.2579-0.2971 ( 36478 PWs)   bands (ev):

   -44.1368 -44.1368 -22.2522 -22.2522 -22.2004 -22.2004 -22.0668 -22.0668
    -7.4149  -7.4149  -6.7953  -6.7953  -5.7157  -5.7157  -4.7338  -4.7338
    -4.5480  -4.5480   0.4212   0.4212   0.9925   0.9925   1.0310   1.0310
     1.5321   1.5321   2.0434   2.0434   2.7124   2.7124   3.1695   3.1695
     3.3809   3.3809   3.5237   3.5237   3.6936   3.6936   3.8719   3.8719
     4.2766   4.2766   6.3916   6.3916   6.6431   6.6431   6.8202   6.8202
     7.1868   7.1868

          k =-0.2541-0.1934 0.0000 ( 36410 PWs)   bands (ev):

   -44.1376 -44.1376 -22.2569 -22.2569 -22.1773 -22.1773 -22.0696 -22.0695
    -7.8739  -7.5982  -7.0561  -6.8620  -6.1659  -5.3702  -4.8803  -4.7795
    -4.7100  -3.9753   0.4005   0.8867   0.9920   1.1272   1.2805   1.4935
     1.6849   1.8162   1.8421   2.5474   2.5959   3.2411   3.2806   3.6774
     3.7186   3.7258   3.8188   3.8664   3.9053   4.1933   4.3032   4.3234
     4.3660   4.6084   5.9250   6.0135   6.2638   6.5587   6.6198   6.7189
     7.0023   7.1201

          k =-0.2541-0.1934 0.1485 ( 36427 PWs)   bands (ev):

   -44.1376 -44.1376 -22.2569 -22.2569 -22.1773 -22.1773 -22.0696 -22.0695
    -7.8443  -7.6559  -7.0081  -6.8786  -6.0928  -5.5829  -4.7989  -4.7251
    -4.6241  -4.0641   0.4606   0.8993   0.9420   1.0452   1.2352   1.3476
     1.7495   1.8968   2.1949   2.5459   2.5799   2.9436   3.3964   3.4295
     3.5488   3.7132   3.8195   3.9035   3.9971   4.1540   4.3214   4.3303
     4.6730   4.7994   5.8577   5.9945   6.1479   6.3231   6.4383   6.7686
     7.1751   7.2660

          k =-0.2541-0.1934-0.2971 ( 36422 PWs)   bands (ev):

   -44.1376 -44.1376 -22.2569 -22.2569 -22.1773 -22.1773 -22.0696 -22.0696
    -7.7622  -7.7622  -6.9297  -6.9297  -5.8826  -5.8826  -4.7595  -4.7595
    -4.3050  -4.3050   0.6399   0.6399   1.0714   1.0714   1.1534   1.1534
     1.9612   1.9612   2.4799   2.4799   2.6611   2.6611   3.2418   3.2418
     3.6499   3.6499   3.8319   3.8319   4.1135   4.1135   4.3322   4.3322
     4.9928   4.9928   5.7584   5.7584   6.1757   6.1757   6.5108   6.5108
     7.3722   7.3722

          k = 0.0000-0.1290 0.0000 ( 36417 PWs)   bands (ev):

   -44.1380 -44.1380 -22.2588 -22.2588 -22.1676 -22.1676 -22.0708 -22.0706
    -7.9975  -7.7161  -7.1252  -6.9086  -6.2223  -5.4166  -4.8490  -4.8198
    -4.7573  -3.8109   0.3092   0.7646   0.8383   1.1486   1.3965   1.5657
     2.1129   2.2944   2.3130   2.7786   2.9273   3.0062   3.3397   3.3466
     3.7192   3.8504   3.8991   4.0126   4.2857   4.2962   4.3515   4.7000
     4.7604   5.4006   5.6593   5.8867   5.9366   5.9613   6.0912   6.8058
     7.0279   7.2305

          k = 0.0000-0.1290 0.1485 ( 36419 PWs)   bands (ev):

   -44.1380 -44.1380 -22.2588 -22.2588 -22.1676 -22.1676 -22.0707 -22.0706
    -7.9673  -7.7750  -7.0720  -6.9269  -6.1510  -5.6348  -4.8218  -4.7702
    -4.5913  -3.9236   0.3816   0.8718   0.9152   0.9811   1.1155   1.8892
     2.0531   2.1353   2.2731   2.8118   2.9130   3.0933   3.3781   3.4571
     3.7354   3.8822   3.9069   3.9969   4.2247   4.3128   4.3676   4.6974
     4.7269   4.9338   5.8466   5.9323   5.9604   6.1032   6.4277   6.6288
     6.8455   7.1340

          k = 0.0000-0.1290-0.2971 ( 36464 PWs)   bands (ev):

   -44.1380 -44.1380 -22.2588 -22.2588 -22.1676 -22.1676 -22.0707 -22.0707
    -7.8835  -7.8835  -6.9841  -6.9841  -5.9413  -5.9413  -4.7957  -4.7957
    -4.2175  -4.2175   0.6078   0.6078   0.9738   0.9738   1.3521   1.3521
     2.1963   2.1963   2.6163   2.6163   2.8710   2.8710   3.5464   3.5464
     3.8517   3.8517   4.0567   4.0567   4.2465   4.2465   4.4059   4.4059
     4.6988   4.6988   5.9280   5.9280   6.2388   6.2388   6.4695   6.4695
     6.8882   6.8883

          k = 1.0162 0.0000 0.0000 ( 36499 PWs)   bands (ev):

   -44.1355 -44.1355 -22.2453 -22.2453 -22.2332 -22.2332 -22.0630 -22.0630
    -6.7323  -6.7119  -6.1058  -6.0953  -6.0679  -6.0620  -5.2651  -5.2645
    -4.4772  -4.4497  -0.0820  -0.0410   0.2350   0.2691   1.0000   1.0329
     1.4811   1.6448   2.2211   2.3984   2.4036   2.4163   2.7801   2.8112
     2.8198   2.8991   3.2212   3.2395   3.2680   3.3533   3.5839   3.5923
     3.8325   4.1712   6.6069   6.6330   6.6980   6.7064   7.1291   7.1686
     7.1695   7.1750

          k = 1.0162 0.0000 0.1485 ( 36485 PWs)   bands (ev):

   -44.1355 -44.1355 -22.2453 -22.2453 -22.2332 -22.2332 -22.0630 -22.0630
    -6.7281  -6.7136  -6.1314  -6.1241  -6.0410  -6.0367  -5.2629  -5.2625
    -4.4759  -4.4565  -0.1725  -0.1588   0.4523   0.4538   1.0077   1.0197
     1.4743   1.5811   2.0590   2.1017   2.3693   2.3868   2.6313   2.7412
     2.9510   3.0678   3.0783   3.1738   3.5081   3.5870   3.6549   3.7215
     4.0026   4.2183   6.1192   6.1658   6.5231   6.6112   7.1779   7.1801
     7.4085   7.4117

          k = 1.0162 0.0000-0.2971 ( 36514 PWs)   bands (ev):

   -44.1355 -44.1355 -22.2453 -22.2453 -22.2332 -22.2332 -22.0630 -22.0630
    -6.7196  -6.7196  -6.1442  -6.1442  -6.0236  -6.0236  -5.2605  -5.2605
    -4.4691  -4.4691  -0.2283  -0.2283   0.6652   0.6652   0.9643   0.9643
     1.5171   1.5171   1.8461   1.8461   2.3486   2.3486   2.7355   2.7355
     2.9371   2.9371   3.1425   3.1425   3.6410   3.6410   3.7981   3.7981
     4.3289   4.3289   5.7322   5.7322   6.4762   6.4762   7.1959   7.1959
     7.5017   7.5017

          k = 1.2703 0.0645 0.0000 ( 36468 PWs)   bands (ev):

   -44.1359 -44.1359 -22.2474 -22.2474 -22.2236 -22.2236 -22.0642 -22.0641
    -6.9984  -6.7588  -6.7163  -6.5745  -5.7424  -5.4470  -5.1803  -5.1322
    -4.5467  -4.4835  -0.0967   0.0267   0.3597   0.9143   1.0061   1.2552
     1.5069   1.7140   2.1052   2.1366   2.2474   2.3352   2.4281   2.8647
     2.9501   3.1798   3.3681   3.4927   3.5022   3.5901   3.6182   3.7076
     4.0115   4.4760   6.0185   6.3891   6.5067   6.7453   6.9827   7.1076
     7.2832   7.5900

          k = 1.2703 0.0645 0.1485 ( 36490 PWs)   bands (ev):

   -44.1359 -44.1359 -22.2474 -22.2474 -22.2236 -22.2236 -22.0641 -22.0641
    -6.9758  -6.8275  -6.6658  -6.5860  -5.6953  -5.4849  -5.1789  -5.1420
    -4.5350  -4.4910  -0.0774   0.1773   0.2530   0.8685   0.9341   1.2065
     1.5418   1.6323   1.9472   2.2124   2.2517   2.5977   2.6471   2.9086
     2.9315   3.1085   3.1884   3.3320   3.4710   3.5463   3.7636   3.8313
     3.9991   4.4948   5.7642   6.4552   6.6351   6.8078   6.9341   7.1117
     7.1643   7.5401

          k = 1.2703 0.0645-0.2971 ( 36480 PWs)   bands (ev):

   -44.1359 -44.1359 -22.2474 -22.2474 -22.2236 -22.2236 -22.0641 -22.0641
    -6.9133  -6.9133  -6.6178  -6.6178  -5.5863  -5.5863  -5.1638  -5.1638
    -4.5110  -4.5110   0.0519   0.0519   0.5154   0.5154   1.0422   1.0422
     1.5762   1.5762   2.1038   2.1038   2.4794   2.4794   2.8257   2.8257
     3.0236   3.0236   3.1596   3.1596   3.5900   3.5900   3.8865   3.8865
     4.0992   4.0992   6.1884   6.1884   6.4811   6.4811   7.1154   7.1154
     7.3993   7.3993

          k =-0.5081-0.3869 0.0000 ( 36463 PWs)   bands (ev):

   -44.1368 -44.1367 -22.2522 -22.2522 -22.2004 -22.2004 -22.0669 -22.0668
    -7.5129  -7.2531  -6.8989  -6.7460  -5.9891  -5.2568  -5.0430  -4.6747
    -4.5920  -4.4622   0.2253   0.5778   0.6571   1.1751   1.1995   1.5397
     1.6515   1.7403   1.9579   2.0636   2.1764   2.3533   2.4767   3.2860
     3.4497   3.4990   3.5238   3.6619   3.6841   3.7274   3.9167   4.1121
     4.3384   4.9924   5.6702   6.0061   6.2369   6.8039   6.8226   6.8748
     7.3521   7.4946

          k =-0.5081-0.3869 0.1485 ( 36477 PWs)   bands (ev):

   -44.1368 -44.1368 -22.2522 -22.2522 -22.2004 -22.2004 -22.0669 -22.0668
    -7.4853  -7.3090  -6.8608  -6.7601  -5.9158  -5.4550  -4.8929  -4.6380
    -4.6324  -4.4776   0.2704   0.5903   0.7505   0.9278   1.2213   1.3564
     1.6095   1.7034   1.9851   2.0525   2.3656   2.5301   2.8342   3.2300
     3.4506   3.4702   3.5071   3.5561   3.6376   3.7412   3.8737   4.1153
     4.2145   4.5221   6.1318   6.2529   6.3089   6.7038   6.8044   6.9076
     7.1763   7.4867

          k =-0.5081-0.3869-0.2971 ( 36492 PWs)   bands (ev):

   -44.1368 -44.1368 -22.2522 -22.2522 -22.2004 -22.2004 -22.0668 -22.0668
    -7.4089  -7.4089  -6.8008  -6.8008  -5.7185  -5.7185  -4.7420  -4.7420
    -4.5422  -4.5422   0.4243   0.4243   0.9861   0.9861   1.0265   1.0265
     1.6426   1.6426   2.0168   2.0168   2.7523   2.7523   3.1195   3.1195
     3.3683   3.3683   3.4841   3.4841   3.6818   3.6818   3.8762   3.8762
     4.2364   4.2364   6.3585   6.3585   6.6866   6.6866   6.8033   6.8033
     7.2096   7.2096

          k =-0.2541-0.3224 0.0000 ( 36485 PWs)   bands (ev):

   -44.1377 -44.1376 -22.2569 -22.2569 -22.1773 -22.1773 -22.0696 -22.0695
    -7.8665  -7.5969  -7.0501  -6.8667  -6.1836  -5.3739  -4.8954  -4.7805
    -4.6989  -3.9766   0.4259   0.8972   1.1100   1.1181   1.3290   1.5650
     1.7220   1.8172   1.8787   2.4776   2.5528   3.2280   3.3809   3.5270
     3.6029   3.6893   3.7235   3.8353   3.9489   4.1377   4.1700   4.2806
     4.3125   4.6387   6.0146   6.0473   6.3300   6.5707   6.6450   6.7825
     6.9248   7.0447

          k =-0.2541-0.3224 0.1485 ( 36445 PWs)   bands (ev):

   -44.1376 -44.1376 -22.2569 -22.2569 -22.1773 -22.1773 -22.0696 -22.0695
    -7.8373  -7.6527  -7.0058  -6.8831  -6.1073  -5.5874  -4.8183  -4.7190
    -4.6173  -4.0642   0.4845   0.9061   0.9556   1.1693   1.3063   1.3739
     1.7698   1.9016   2.2429   2.4807   2.5415   2.9417   3.4040   3.4867
     3.5217   3.5520   3.6574   3.9002   3.9240   4.0973   4.2355   4.2918
     4.6854   4.7979   5.8511   6.0272   6.1483   6.3703   6.5356   6.7589
     7.1405   7.2487

          k =-0.2541-0.3224-0.2971 ( 36442 PWs)   bands (ev):

   -44.1376 -44.1376 -22.2569 -22.2569 -22.1773 -22.1773 -22.0696 -22.0696
    -7.7565  -7.7565  -6.9324  -6.9324  -5.8910  -5.8910  -4.7654  -4.7654
    -4.3024  -4.3024   0.6584   0.6584   1.1056   1.1056   1.2375   1.2375
     1.9706   1.9706   2.4582   2.4582   2.6594   2.6594   3.2582   3.2582
     3.5132   3.5132   3.8004   3.8004   4.0579   4.0579   4.2711   4.2711
     5.0117   5.0117   5.7227   5.7227   6.1754   6.1754   6.5956   6.5956
     7.3567   7.3567

          k = 0.0000-0.2579 0.0000 ( 36445 PWs)   bands (ev):

   -44.1380 -44.1380 -22.2588 -22.2588 -22.1676 -22.1676 -22.0708 -22.0706
    -7.9910  -7.7149  -7.1174  -6.9129  -6.2415  -5.4216  -4.8734  -4.8141
    -4.7436  -3.8121   0.3434   0.7745   0.9480   1.1990   1.4227   1.6308
     2.1133   2.2931   2.3115   2.7963   2.9324   3.0230   3.2986   3.4526
     3.5062   3.6522   3.8230   3.9553   4.1570   4.2186   4.2966   4.6982
     4.7317   5.3596   5.7111   5.9456   5.9554   6.0408   6.1774   6.7984
     7.0280   7.1410

          k = 0.0000-0.2579 0.1485 ( 36452 PWs)   bands (ev):

   -44.1380 -44.1380 -22.2588 -22.2588 -22.1676 -22.1676 -22.0707 -22.0706
    -7.9610  -7.7720  -7.0678  -6.9307  -6.1672  -5.6405  -4.8400  -4.7627
    -4.5869  -3.9239   0.4144   0.9265   0.9694   1.0346   1.1688   1.9021
     2.0952   2.1357   2.2724   2.8271   2.9196   3.0968   3.3296   3.4509
     3.6468   3.6677   3.8814   3.9087   4.1877   4.2165   4.2456   4.6949
     4.7095   4.9266   5.8867   5.9857   6.0247   6.1172   6.4562   6.6192
     6.8479   7.0772

          k = 0.0000-0.2579-0.2971 ( 36454 PWs)   bands (ev):

   -44.1380 -44.1380 -22.2588 -22.2588 -22.1676 -22.1676 -22.0707 -22.0707
    -7.8784  -7.8784  -6.9853  -6.9853  -5.9513  -5.9513  -4.8007  -4.8007
    -4.2159  -4.2159   0.6424   0.6424   1.0569   1.0569   1.3679   1.3679
     2.1965   2.1965   2.6437   2.6437   2.8815   2.8815   3.4338   3.4338
     3.7771   3.7771   4.0371   4.0371   4.1203   4.1203   4.3746   4.3746
     4.6930   4.6930   5.9589   5.9589   6.2709   6.2709   6.4769   6.4769
     6.8633   6.8633

          k = 1.5243 0.0000 0.0000 ( 36439 PWs)   bands (ev):

   -44.1368 -44.1367 -22.2522 -22.2522 -22.2004 -22.2004 -22.0669 -22.0668
    -7.5097  -7.2526  -6.8992  -6.7479  -5.9925  -5.2570  -5.0457  -4.6765
    -4.5889  -4.4627   0.2206   0.5838   0.6522   1.1798   1.2035   1.6048
     1.6763   1.7057   1.9737   2.0556   2.2212   2.3218   2.4721   3.2450
     3.4533   3.4645   3.5304   3.6631   3.7032   3.7408   3.8277   4.1337
     4.3326   4.9954   5.6667   5.9685   6.2679   6.7866   6.8543   6.9342
     7.3093   7.5333

          k = 1.5243 0.0000 0.1485 ( 36476 PWs)   bands (ev):

   -44.1368 -44.1368 -22.2522 -22.2522 -22.2004 -22.2004 -22.0669 -22.0668
    -7.4822  -7.3075  -6.8621  -6.7622  -5.9183  -5.4554  -4.8966  -4.6366
    -4.6333  -4.4763   0.2676   0.5961   0.7477   0.9233   1.2243   1.3625
     1.6831   1.7178   1.9816   2.0300   2.3891   2.5199   2.8353   3.1933
     3.4074   3.4746   3.5006   3.5667   3.6593   3.7268   3.8440   4.1417
     4.1678   4.5289   6.1066   6.2677   6.3024   6.6740   6.8440   6.9776
     7.1305   7.5036

          k = 1.5243 0.0000-0.2971 ( 36508 PWs)   bands (ev):

   -44.1368 -44.1368 -22.2522 -22.2522 -22.2004 -22.2004 -22.0668 -22.0668
    -7.4064  -7.4064  -6.8031  -6.8031  -5.7196  -5.7196  -4.7453  -4.7453
    -4.5400  -4.5400   0.4254   0.4254   0.9835   0.9835   1.0250   1.0250
     1.6999   1.6999   1.9960   1.9960   2.7759   2.7759   3.0778   3.0778
     3.3693   3.3693   3.4733   3.4733   3.6785   3.6785   3.8751   3.8751
     4.2223   4.2223   6.3451   6.3451   6.6858   6.6858   6.8105   6.8105
     7.2271   7.2271

          k =-0.2541-0.4514 0.0000 ( 36444 PWs)   bands (ev):

   -44.1376 -44.1376 -22.2569 -22.2569 -22.1773 -22.1773 -22.0696 -22.0695
    -7.8612  -7.5960  -7.0464  -6.8691  -6.1965  -5.3765  -4.9061  -4.7787
    -4.6936  -3.9775   0.4374   0.9063   1.1097   1.2324   1.3410   1.6489
     1.7492   1.8169   1.9144   2.4018   2.4803   3.2377   3.3802   3.4578
     3.4781   3.7250   3.7424   3.8337   3.8886   4.0941   4.1073   4.2106
     4.3109   4.6579   6.0644   6.0896   6.3576   6.5807   6.6703   6.8229
     6.8345   7.0168

          k =-0.2541-0.4514 0.1485 ( 36461 PWs)   bands (ev):

   -44.1376 -44.1376 -22.2569 -22.2569 -22.1773 -22.1773 -22.0696 -22.0695
    -7.8322  -7.6504  -7.0047  -6.8858  -6.1177  -5.5904  -4.8303  -4.7160
    -4.6131  -4.0642   0.4950   0.9151   0.9592   1.2859   1.3444   1.4175
     1.7980   1.9044   2.2922   2.4083   2.4640   2.9556   3.3396   3.3825
     3.4957   3.5465   3.7340   3.8624   3.8984   3.9664   4.2186   4.2638
     4.7035   4.7906   5.8474   6.0481   6.1581   6.3706   6.6025   6.7410
     7.1334   7.2345

          k =-0.2541-0.4514-0.2971 ( 36490 PWs)   bands (ev):

   -44.1376 -44.1376 -22.2569 -22.2569 -22.1773 -22.1773 -22.0696 -22.0696
    -7.7524  -7.7524  -6.9344  -6.9344  -5.8969  -5.8969  -4.7696  -4.7696
    -4.3006  -4.3006   0.6665   0.6665   1.1166   1.1166   1.3349   1.3349
     1.9817   1.9817   2.4140   2.4140   2.6606   2.6606   3.2508   3.2508
     3.4027   3.4027   3.8469   3.8469   3.9844   3.9844   4.2410   4.2410
     5.0250   5.0250   5.7010   5.7010   6.1628   6.1628   6.6484   6.6484
     7.3493   7.3493

          k = 0.0000-0.3869 0.0000 ( 36477 PWs)   bands (ev):

   -44.1380 -44.1380 -22.2588 -22.2588 -22.1676 -22.1676 -22.0708 -22.0706
    -7.9842  -7.7138  -7.1102  -6.9160  -6.2613  -5.4264  -4.8940  -4.8058
    -4.7365  -3.8133   0.3659   0.7854   1.0969   1.2608   1.4473   1.7029
     2.1138   2.2939   2.3099   2.8153   2.9369   3.0534   3.1493   3.2118
     3.5421   3.6087   3.7952   3.9524   4.0138   4.0436   4.2969   4.6966
     4.7032   5.3352   5.7633   5.9743   6.0181   6.0905   6.2352   6.7379
     7.0279   7.0912

          k = 0.0000-0.3869 0.1485 ( 36452 PWs)   bands (ev):

   -44.1380 -44.1380 -22.2588 -22.2588 -22.1676 -22.1676 -22.0707 -22.0706
    -7.9547  -7.7691  -7.0643  -6.9338  -6.1836  -5.6460  -4.8553  -4.7579
    -4.5830  -3.9241   0.4343   0.9479   1.0145   1.1659   1.2452   1.9174
     2.1361   2.1387   2.2717   2.8434   2.9260   3.0360   3.1600   3.3329
     3.5319   3.7260   3.8554   3.9210   4.0570   4.0888   4.2075   4.6911
     4.6942   4.9251   5.9359   6.0293   6.0575   6.1315   6.4721   6.5789
     6.8504   7.0343

          k = 0.0000-0.3869-0.2971 ( 36454 PWs)   bands (ev):

   -44.1380 -44.1380 -22.2588 -22.2588 -22.1676 -22.1676 -22.0707 -22.0707
    -7.8732  -7.8732  -6.9867  -6.9867  -5.9612  -5.9612  -4.8057  -4.8057
    -4.2141  -4.2141   0.6615   0.6615   1.1791   1.1791   1.3856   1.3856
     2.1966   2.1966   2.6640   2.6640   2.8925   2.8925   3.2026   3.2026
     3.8218   3.8218   4.0068   4.0068   4.0169   4.0169   4.3445   4.3445
     4.6876   4.6876   5.9677   5.9677   6.2988   6.2988   6.4845   6.4845
     6.8290   6.8290

          k =-2.0325 0.0000 0.0000 ( 36452 PWs)   bands (ev):

   -44.1380 -44.1380 -22.2588 -22.2588 -22.1676 -22.1676 -22.0708 -22.0706
    -7.9814  -7.7133  -7.1075  -6.9169  -6.2697  -5.4284  -4.9017  -4.8019
    -4.7348  -3.8138   0.3718   0.7902   1.2210   1.2358   1.4569   1.7466
     2.1140   2.2949   2.3092   2.8237   2.9386   3.0337   3.0708   3.0935
     3.5327   3.7568   3.7835   3.8634   3.9533   3.9756   4.2970   4.6915
     4.6960   5.3276   5.7846   5.9822   6.0563   6.1060   6.2532   6.6928
     7.0279   7.0827

          k =-2.0325 0.0000 0.1485 ( 36456 PWs)   bands (ev):

   -44.1380 -44.1380 -22.2588 -22.2588 -22.1676 -22.1676 -22.0707 -22.0706
    -7.9520  -7.7679  -7.0630  -6.9348  -6.1905  -5.6483  -4.8611  -4.7562
    -4.5815  -3.9242   0.4391   0.9563   1.0289   1.2443   1.2803   1.9245
     2.1362   2.1601   2.2714   2.8506   2.9285   2.9634   3.0411   3.3245
     3.5072   3.8177   3.8444   3.9364   3.9617   4.0096   4.2036   4.6853
     4.6923   4.9251   5.9604   6.0484   6.0621   6.1375   6.4755   6.5516
     6.8514   7.0219

          k =-2.0325 0.0000-0.2971 ( 36460 PWs)   bands (ev):

   -44.1380 -44.1380 -22.2588 -22.2588 -22.1676 -22.1676 -22.0707 -22.0707
    -7.8711  -7.8711  -6.9872  -6.9872  -5.9653  -5.9653  -4.8077  -4.8077
    -4.2134  -4.2134   0.6660   0.6660   1.2435   1.2435   1.3940   1.3940
     2.1967   2.1967   2.6643   2.6643   2.8972   2.8972   3.0980   3.0980
     3.8877   3.8877   3.9233   3.9233   4.0083   4.0083   4.3338   4.3338
     4.6854   4.6854   5.9673   5.9673   6.3087   6.3087   6.4878   6.4878
     6.8136   6.8136

     the Fermi energy is     5.4541 ev

!    total energy              =   -4240.95127925 Ry

     total all-electron energy =   -150287.644974 Ry
     estimated scf accuracy    <          1.6E-12 Ry
     smearing contrib. (-TS)   =       0.00000265 Ry
     internal energy E=F+TS    =   -4240.95128191 Ry

     The total energy is F=E-TS. E is the sum of the following terms:
     one-electron contribution =    -167.58795314 Ry
     hartree contribution      =     117.26373522 Ry
     xc contribution           =    -201.54148245 Ry
     ewald contribution        =    -221.55876904 Ry
     one-center paw contrib.   =   -3767.52681250 Ry

     convergence has been achieved in  18 iterations

     Forces acting on atoms (cartesian axes, Ry/au):

     atom    1 type  1   force =     0.00000000    0.00703194    0.00000000
     atom    2 type  1   force =     0.00000000   -0.00703194    0.00000000
     atom    3 type  2   force =     0.00000000   -0.00000729    0.00000000
     atom    4 type  2   force =     0.00000000    0.00000729    0.00000000
     atom    5 type  2   force =     0.00000000   -0.00160988   -0.00065240
     atom    6 type  2   force =     0.00000000    0.00160988    0.00065240
     atom    7 type  2   force =     0.00000000   -0.00160988    0.00065240
     atom    8 type  2   force =     0.00000000    0.00160988   -0.00065240
     atom    9 type  2   force =     0.00000000   -0.01145380   -0.01240895
     atom   10 type  2   force =     0.00000000    0.01145380    0.01240895
     atom   11 type  2   force =     0.00000000   -0.01145380    0.01240895
     atom   12 type  2   force =     0.00000000    0.01145380   -0.01240895

     Total force =     0.035379     Total SCF correction =     0.000002


     Computing stress (Cartesian axis) and pressure

          total   stress  (Ry/bohr**3)                   (kbar)     P=        2.84
   0.00001826   0.00000000   0.00000000            2.69        0.00        0.00
   0.00000000   0.00001313   0.00000000            0.00        1.93        0.00
   0.00000000   0.00000000   0.00002655            0.00        0.00        3.91

 
     init_run     :     36.29s CPU     37.76s WALL (       1 calls)
     electrons    :   1772.95s CPU   1791.65s WALL (       1 calls)
     forces       :      6.82s CPU      7.10s WALL (       1 calls)
     stress       :     45.98s CPU     46.59s WALL (       1 calls)

     Called by init_run:
     wfcinit      :     31.30s CPU     31.61s WALL (       1 calls)
     potinit      :      1.51s CPU      1.57s WALL (       1 calls)
     hinit0       :      1.71s CPU      2.51s WALL (       1 calls)

     Called by electrons:
     c_bands      :   1432.70s CPU   1440.67s WALL (      19 calls)
     sum_band     :    306.10s CPU    312.45s WALL (      19 calls)
     v_of_rho     :      8.61s CPU      9.26s WALL (      19 calls)
     newd         :     18.12s CPU     22.05s WALL (      19 calls)
     PAW_pot      :      6.92s CPU      6.93s WALL (      19 calls)
     mix_rho      :      1.60s CPU      1.64s WALL (      19 calls)

     Called by c_bands:
     init_us_2    :     14.64s CPU     14.70s WALL (    2583 calls)
     cegterg      :   1352.68s CPU   1359.89s WALL (    1197 calls)

     Called by *egterg:
     cdiaghg      :     29.06s CPU     29.19s WALL (    8290 calls)
     h_psi        :   1165.51s CPU   1172.48s WALL (    8416 calls)
     s_psi        :     53.26s CPU     53.34s WALL (    8416 calls)
     g_psi        :      2.38s CPU      2.40s WALL (    7156 calls)

     Called by h_psi:
     h_psi:calbec :     45.33s CPU     45.41s WALL (    8416 calls)
     vloc_psi     :   1063.04s CPU   1069.79s WALL (    8416 calls)
     add_vuspsi   :     53.04s CPU     53.12s WALL (    8416 calls)

     General routines
     calbec       :     60.60s CPU     60.72s WALL (    9928 calls)
     fft          :      7.82s CPU      8.70s WALL (     271 calls)
     ffts         :      0.20s CPU      0.21s WALL (      38 calls)
     fftw         :   1058.91s CPU   1065.59s WALL (  445902 calls)
     interpolate  :      0.71s CPU      0.72s WALL (      19 calls)
 
     Parallel routines
     fft_scatt_xy :    291.09s CPU    292.93s WALL (  446211 calls)
     fft_scatt_yz :    177.57s CPU    179.17s WALL (  446211 calls)
 
     PWSCF        :  31m 3.00s CPU  31m27.88s WALL

 
   This run was terminated on:  15:17:45  19Nov2021            

=------------------------------------------------------------------------------=
   JOB DONE.
=------------------------------------------------------------------------------=
