
     Program PWSCF v.6.7MaX starts on 19Nov2021 at 14:46:16 

     This program is part of the open-source Quantum ESPRESSO suite
     for quantum simulation of materials; please cite
         "P. Giannozzi et al., J. Phys.:Condens. Matter 21 395502 (2009);
         "P. Giannozzi et al., J. Phys.:Condens. Matter 29 465901 (2017);
          URL http://www.quantum-espresso.org", 
     in publications or presentations arising from this work. More details at
     http://www.quantum-espresso.org/quote

     Parallel version (MPI), running on    10 processors

     MPI processes distributed on     1 nodes
     R & G space division:  proc/nbgrp/npool/nimage =      10
     Waiting for input...
     Reading input from standard input

     Current dimensions of program PWSCF are:
     Max number of different atomic species (ntypx) = 10
     Max number of k-points (npk) =  40000
     Max angular momentum in pseudopotentials (lmaxx) =  3
     file Zr.pbe-spn-kjpaw_psl.1.0.0.UPF: wavefunction(s)  4S 4P renormalized
     file Te.pbe-n-kjpaw_psl.1.0.0.UPF: wavefunction(s)  5S 5P renormalized

     Subspace diagonalization in iterative solution of the eigenvalue problem:
     a serial algorithm will be used

     Message from routine setup:
     using ibrav=0 with symmetry is DISCOURAGED, use correct ibrav instead
 
     Parallelization info
     --------------------
     sticks:   dense  smooth     PW     G-vecs:    dense   smooth      PW
     Min         734     293     87               115340    29174    4753
     Max         735     295     88               115345    29176    4760
     Sum        7345    2937    873              1153415   291749   47557
 


     bravais-lattice index     =            0
     lattice parameter (alat)  =      15.5510  a.u.
     unit-cell volume          =    3018.5011 (a.u.)^3
     number of atoms/cell      =           12
     number of atomic types    =            2
     number of electrons       =        84.00
     number of Kohn-Sham states=           50
     kinetic-energy cutoff     =      80.0000  Ry
     charge density cutoff     =     800.0000  Ry
     scf convergence threshold =      1.0E-10
     mixing beta               =       0.7000
     number of iterations used =            8  plain     mixing
     Exchange-correlation= SLA  PW   PBX  PBC
                           (   1   4   3   4   0   0   0)

     celldm(1)=  15.551040  celldm(2)=   0.000000  celldm(3)=   0.000000
     celldm(4)=   0.000000  celldm(5)=   0.000000  celldm(6)=   0.000000

     crystal axes: (cart. coord. in units of alat)
               a(1) = (   0.246007  -0.969268   0.000000 )  
               a(2) = (   0.246007   0.969268   0.000000 )  
               a(3) = (   0.000000   0.000000   1.683031 )  

     reciprocal axes: (cart. coord. in units 2 pi/alat)
               b(1) = (  2.032465 -0.515853  0.000000 )  
               b(2) = (  2.032465  0.515853  0.000000 )  
               b(3) = (  0.000000  0.000000  0.594166 )  


     PseudoPot. # 1 for Zr read from file:
     pseudo/Zr.pbe-spn-kjpaw_psl.1.0.0.UPF
     MD5 check sum: 02112c41713a0468aff2bb39ef194e36
     Pseudo is Projector augmented-wave + core cor, Zval = 12.0
     Generated using &quot;atomic&quot; code by A. Dal Corso  v.6.2.2
     Shape of augmentation charge: PSQ
     Using radial grid of 1225 points,  6 beta functions with: 
                l(1) =   0
                l(2) =   0
                l(3) =   1
                l(4) =   1
                l(5) =   2
                l(6) =   2
     Q(r) pseudized with 0 coefficients 


     PseudoPot. # 2 for Te read from file:
     pseudo/Te.pbe-n-kjpaw_psl.1.0.0.UPF
     MD5 check sum: 66247bff2bd9dbf220fbb0bf5ab56e9d
     Pseudo is Projector augmented-wave + core cor, Zval =  6.0
     Generated using &quot;atomic&quot; code by A. Dal Corso  v.6.3
     Shape of augmentation charge: PSQ
     Using radial grid of 1245 points,  6 beta functions with: 
                l(1) =   0
                l(2) =   0
                l(3) =   1
                l(4) =   1
                l(5) =   2
                l(6) =   2
     Q(r) pseudized with 0 coefficients 


     atomic species   valence    mass     pseudopotential
        Zr            12.00    91.22000     Zr( 1.00)
        Te             6.00   127.60000     Te( 1.00)

      8 Sym. Ops., with inversion, found ( 4 have fractional translation)



   Cartesian axes

     site n.     atom                  positions (alat units)
         1           Zr  tau(   1) = (   0.0000000   0.6033512   0.4207578  )
         2           Zr  tau(   2) = (   0.2460067   0.3659169   1.2622733  )
         3           Te  tau(   3) = (   0.2460067   0.3342030   0.4207578  )
         4           Te  tau(   4) = (   0.0000000   0.6350651   1.2622733  )
         5           Te  tau(   5) = (   0.2460067   0.8108528   0.2527644  )
         6           Te  tau(   6) = (   0.0000000   0.1584153   1.4302666  )
         7           Te  tau(   7) = (   0.2460067   0.8108528   0.5887511  )
         8           Te  tau(   8) = (   0.0000000   0.1584153   1.0942800  )
         9           Te  tau(   9) = (   0.0000000   0.4188445   0.7346535  )
        10           Te  tau(  10) = (   0.2460067   0.5504236   0.9483776  )
        11           Te  tau(  11) = (   0.0000000   0.4188445   0.1068621  )
        12           Te  tau(  12) = (   0.2460067   0.5504236   1.5761690  )

     number of k points=    63  Methfessel-Paxton smearing, width (Ry)=  0.0030
                       cart. coord. in units 2pi/alat
        k(    1) = (   0.0000000   0.0000000   0.0000000), wk =   0.0078125
        k(    2) = (   0.0000000   0.0000000   0.1485415), wk =   0.0156250
        k(    3) = (   0.0000000   0.0000000  -0.2970830), wk =   0.0078125
        k(    4) = (   0.2540581   0.0644816   0.0000000), wk =   0.0312500
        k(    5) = (   0.2540581   0.0644816   0.1485415), wk =   0.0625000
        k(    6) = (   0.2540581   0.0644816  -0.2970830), wk =   0.0312500
        k(    7) = (   0.5081162   0.1289633   0.0000000), wk =   0.0312500
        k(    8) = (   0.5081162   0.1289633   0.1485415), wk =   0.0625000
        k(    9) = (   0.5081162   0.1289633  -0.2970830), wk =   0.0312500
        k(   10) = (   0.7621743   0.1934449   0.0000000), wk =   0.0312500
        k(   11) = (   0.7621743   0.1934449   0.1485415), wk =   0.0625000
        k(   12) = (   0.7621743   0.1934449  -0.2970830), wk =   0.0312500
        k(   13) = (  -1.0162324  -0.2579266   0.0000000), wk =   0.0156250
        k(   14) = (  -1.0162324  -0.2579266   0.1485415), wk =   0.0312500
        k(   15) = (  -1.0162324  -0.2579266  -0.2970830), wk =   0.0156250
        k(   16) = (   0.5081162   0.0000000   0.0000000), wk =   0.0156250
        k(   17) = (   0.5081162   0.0000000   0.1485415), wk =   0.0312500
        k(   18) = (   0.5081162   0.0000000  -0.2970830), wk =   0.0156250
        k(   19) = (   0.7621743   0.0644816   0.0000000), wk =   0.0312500
        k(   20) = (   0.7621743   0.0644816   0.1485415), wk =   0.0625000
        k(   21) = (   0.7621743   0.0644816  -0.2970830), wk =   0.0312500
        k(   22) = (   1.0162324   0.1289633   0.0000000), wk =   0.0312500
        k(   23) = (   1.0162324   0.1289633   0.1485415), wk =   0.0625000
        k(   24) = (   1.0162324   0.1289633  -0.2970830), wk =   0.0312500
        k(   25) = (  -0.7621743  -0.3224082   0.0000000), wk =   0.0312500
        k(   26) = (  -0.7621743  -0.3224082   0.1485415), wk =   0.0625000
        k(   27) = (  -0.7621743  -0.3224082  -0.2970830), wk =   0.0312500
        k(   28) = (  -0.5081162  -0.2579266   0.0000000), wk =   0.0312500
        k(   29) = (  -0.5081162  -0.2579266   0.1485415), wk =   0.0625000
        k(   30) = (  -0.5081162  -0.2579266  -0.2970830), wk =   0.0312500
        k(   31) = (  -0.2540581  -0.1934449   0.0000000), wk =   0.0312500
        k(   32) = (  -0.2540581  -0.1934449   0.1485415), wk =   0.0625000
        k(   33) = (  -0.2540581  -0.1934449  -0.2970830), wk =   0.0312500
        k(   34) = (   0.0000000  -0.1289633   0.0000000), wk =   0.0156250
        k(   35) = (   0.0000000  -0.1289633   0.1485415), wk =   0.0312500
        k(   36) = (   0.0000000  -0.1289633  -0.2970830), wk =   0.0156250
        k(   37) = (   1.0162324   0.0000000   0.0000000), wk =   0.0156250
        k(   38) = (   1.0162324   0.0000000   0.1485415), wk =   0.0312500
        k(   39) = (   1.0162324   0.0000000  -0.2970830), wk =   0.0156250
        k(   40) = (   1.2702905   0.0644816   0.0000000), wk =   0.0312500
        k(   41) = (   1.2702905   0.0644816   0.1485415), wk =   0.0625000
        k(   42) = (   1.2702905   0.0644816  -0.2970830), wk =   0.0312500
        k(   43) = (  -0.5081162  -0.3868899   0.0000000), wk =   0.0312500
        k(   44) = (  -0.5081162  -0.3868899   0.1485415), wk =   0.0625000
        k(   45) = (  -0.5081162  -0.3868899  -0.2970830), wk =   0.0312500
        k(   46) = (  -0.2540581  -0.3224082   0.0000000), wk =   0.0312500
        k(   47) = (  -0.2540581  -0.3224082   0.1485415), wk =   0.0625000
        k(   48) = (  -0.2540581  -0.3224082  -0.2970830), wk =   0.0312500
        k(   49) = (   0.0000000  -0.2579266   0.0000000), wk =   0.0156250
        k(   50) = (   0.0000000  -0.2579266   0.1485415), wk =   0.0312500
        k(   51) = (   0.0000000  -0.2579266  -0.2970830), wk =   0.0156250
        k(   52) = (   1.5243485   0.0000000   0.0000000), wk =   0.0156250
        k(   53) = (   1.5243485   0.0000000   0.1485415), wk =   0.0312500
        k(   54) = (   1.5243485   0.0000000  -0.2970830), wk =   0.0156250
        k(   55) = (  -0.2540581  -0.4513715   0.0000000), wk =   0.0312500
        k(   56) = (  -0.2540581  -0.4513715   0.1485415), wk =   0.0625000
        k(   57) = (  -0.2540581  -0.4513715  -0.2970830), wk =   0.0312500
        k(   58) = (   0.0000000  -0.3868899   0.0000000), wk =   0.0156250
        k(   59) = (   0.0000000  -0.3868899   0.1485415), wk =   0.0312500
        k(   60) = (   0.0000000  -0.3868899  -0.2970830), wk =   0.0156250
        k(   61) = (  -2.0324647   0.0000000   0.0000000), wk =   0.0078125
        k(   62) = (  -2.0324647   0.0000000   0.1485415), wk =   0.0156250
        k(   63) = (  -2.0324647   0.0000000  -0.2970830), wk =   0.0078125

     Dense  grid:  1153415 G-vectors     FFT dimensions: ( 144, 144, 240)

     Smooth grid:   291749 G-vectors     FFT dimensions: (  90,  90, 150)

     Estimated max dynamical RAM per process >     657.19 MB

     Estimated total dynamical RAM >       6.42 GB

     Initial potential from superposition of free atoms

     starting charge   83.99353, renormalised to   84.00000
     Starting wfcs are   66 randomized atomic wfcs
     Checking if some PAW data can be deallocated... 

     total cpu time spent up to now is       43.1 secs

     Self-consistent Calculation

     iteration #  1     ecut=    80.00 Ry     beta= 0.70
     Davidson diagonalization with overlap
     ethr =  1.00E-02,  avg # of iterations =  2.1

     Threshold (ethr) on eigenvalues was too large:
     Diagonalizing with lowered threshold

     Davidson diagonalization with overlap
     ethr =  4.34E-04,  avg # of iterations =  4.0

     total cpu time spent up to now is      207.1 secs

     total energy              =   -4240.72622786 Ry
     estimated scf accuracy    <       0.43987631 Ry

     iteration #  2     ecut=    80.00 Ry     beta= 0.70
     Davidson diagonalization with overlap
     ethr =  5.24E-04,  avg # of iterations =  8.0

     total cpu time spent up to now is      321.8 secs

     total energy              =   -4240.63339003 Ry
     estimated scf accuracy    <       2.02152180 Ry

     iteration #  3     ecut=    80.00 Ry     beta= 0.70
     Davidson diagonalization with overlap
     ethr =  5.24E-04,  avg # of iterations =  5.5

     total cpu time spent up to now is      416.9 secs

     total energy              =   -4240.93741538 Ry
     estimated scf accuracy    <       0.00816862 Ry

     iteration #  4     ecut=    80.00 Ry     beta= 0.70
     Davidson diagonalization with overlap
     c_bands:  1 eigenvalues not converged
     c_bands:  2 eigenvalues not converged
     c_bands:  2 eigenvalues not converged
     c_bands:  1 eigenvalues not converged
     c_bands:  2 eigenvalues not converged
     c_bands:  1 eigenvalues not converged
     c_bands:  2 eigenvalues not converged
     c_bands:  2 eigenvalues not converged
     c_bands:  2 eigenvalues not converged
     c_bands:  1 eigenvalues not converged
     c_bands:  2 eigenvalues not converged
     c_bands:  1 eigenvalues not converged
     c_bands:  2 eigenvalues not converged
     c_bands:  1 eigenvalues not converged
     c_bands:  1 eigenvalues not converged
     c_bands:  2 eigenvalues not converged
     c_bands:  1 eigenvalues not converged
     c_bands:  1 eigenvalues not converged
     c_bands:  2 eigenvalues not converged
     c_bands:  1 eigenvalues not converged
     c_bands:  1 eigenvalues not converged
     c_bands:  1 eigenvalues not converged
     c_bands:  1 eigenvalues not converged
     c_bands:  1 eigenvalues not converged
     ethr =  9.72E-06,  avg # of iterations = 17.6

     total cpu time spent up to now is      597.6 secs

     total energy              =   -4240.94768117 Ry
     estimated scf accuracy    <       0.04390560 Ry

     iteration #  5     ecut=    80.00 Ry     beta= 0.70
     Davidson diagonalization with overlap
     c_bands:  1 eigenvalues not converged
     ethr =  9.72E-06,  avg # of iterations =  7.4

     total cpu time spent up to now is      693.1 secs

     total energy              =   -4240.94943906 Ry
     estimated scf accuracy    <       0.00764861 Ry

     iteration #  6     ecut=    80.00 Ry     beta= 0.70
     Davidson diagonalization with overlap
     ethr =  9.11E-06,  avg # of iterations =  3.0

     total cpu time spent up to now is      770.4 secs

     total energy              =   -4240.95013232 Ry
     estimated scf accuracy    <       0.00092170 Ry

     iteration #  7     ecut=    80.00 Ry     beta= 0.70
     Davidson diagonalization with overlap
     ethr =  1.10E-06,  avg # of iterations = 10.5

     total cpu time spent up to now is      892.2 secs

     total energy              =   -4240.95060628 Ry
     estimated scf accuracy    <       0.00119254 Ry

     iteration #  8     ecut=    80.00 Ry     beta= 0.70
     Davidson diagonalization with overlap
     ethr =  1.10E-06,  avg # of iterations =  2.3

     total cpu time spent up to now is      963.6 secs

     total energy              =   -4240.95064756 Ry
     estimated scf accuracy    <       0.00016321 Ry

     iteration #  9     ecut=    80.00 Ry     beta= 0.70
     Davidson diagonalization with overlap
     ethr =  1.94E-07,  avg # of iterations =  6.3

     total cpu time spent up to now is     1056.4 secs

     total energy              =   -4240.95070209 Ry
     estimated scf accuracy    <       0.00002276 Ry

     iteration # 10     ecut=    80.00 Ry     beta= 0.70
     Davidson diagonalization with overlap
     ethr =  2.71E-08,  avg # of iterations =  3.3

     total cpu time spent up to now is     1131.5 secs

     total energy              =   -4240.95070404 Ry
     estimated scf accuracy    <       0.00000463 Ry

     iteration # 11     ecut=    80.00 Ry     beta= 0.70
     Davidson diagonalization with overlap
     ethr =  5.52E-09,  avg # of iterations =  6.3

     total cpu time spent up to now is     1224.7 secs

     total energy              =   -4240.95070595 Ry
     estimated scf accuracy    <       0.00000095 Ry

     iteration # 12     ecut=    80.00 Ry     beta= 0.70
     Davidson diagonalization with overlap
     ethr =  1.13E-09,  avg # of iterations =  3.2

     total cpu time spent up to now is     1299.1 secs

     total energy              =   -4240.95070604 Ry
     estimated scf accuracy    <       0.00000009 Ry

     iteration # 13     ecut=    80.00 Ry     beta= 0.70
     Davidson diagonalization with overlap
     ethr =  1.09E-10,  avg # of iterations =  7.8

     total cpu time spent up to now is     1407.4 secs

     total energy              =   -4240.95070611 Ry
     estimated scf accuracy    <       0.00000006 Ry

     iteration # 14     ecut=    80.00 Ry     beta= 0.70
     Davidson diagonalization with overlap
     ethr =  6.62E-11,  avg # of iterations =  1.6

     total cpu time spent up to now is     1476.1 secs

     total energy              =   -4240.95070610 Ry
     estimated scf accuracy    <       0.00000002 Ry

     iteration # 15     ecut=    80.00 Ry     beta= 0.70
     Davidson diagonalization with overlap
     ethr =  2.75E-11,  avg # of iterations =  5.4

     total cpu time spent up to now is     1559.8 secs

     total energy              =   -4240.95070610 Ry
     estimated scf accuracy    <          4.6E-10 Ry

     iteration # 16     ecut=    80.00 Ry     beta= 0.70
     Davidson diagonalization with overlap
     ethr =  5.43E-13,  avg # of iterations =  8.1

     total cpu time spent up to now is     1670.0 secs

     total energy              =   -4240.95070611 Ry
     estimated scf accuracy    <          1.1E-09 Ry

     iteration # 17     ecut=    80.00 Ry     beta= 0.70
     Davidson diagonalization with overlap
     ethr =  5.43E-13,  avg # of iterations =  2.5

     total cpu time spent up to now is     1743.1 secs

     total energy              =   -4240.95070611 Ry
     estimated scf accuracy    <          2.7E-10 Ry

     iteration # 18     ecut=    80.00 Ry     beta= 0.70
     Davidson diagonalization with overlap
     ethr =  3.22E-13,  avg # of iterations =  6.0

     total cpu time spent up to now is     1817.0 secs

     End of self-consistent calculation

          k = 0.0000 0.0000 0.0000 ( 36359 PWs)   bands (ev):

   -44.1385 -44.1385 -22.2589 -22.2589 -22.1678 -22.1678 -22.0715 -22.0714
    -8.0144  -7.7374  -7.1286  -6.9104  -6.2060  -5.4143  -4.8304  -4.8155
    -4.7656  -3.8079   0.2873   0.7623   0.8000   1.1399   1.3787   1.5360
     2.0963   2.2900   2.2925   2.7744   2.9239   3.0017   3.3133   3.3389
     3.7675   3.8674   4.0300   4.0823   4.3005   4.3400   4.4031   4.7033
     4.7662   5.4221   5.6380   5.8667   5.9082   5.9378   6.0333   6.7951
     7.0320   7.2768

          k = 0.0000 0.0000 0.1485 ( 36415 PWs)   bands (ev):

   -44.1385 -44.1385 -22.2589 -22.2589 -22.1678 -22.1678 -22.0715 -22.0714
    -7.9844  -7.7949  -7.0757  -6.9291  -6.1364  -5.6290  -4.8097  -4.7732
    -4.5879  -3.9207   0.3603   0.8314   0.9081   0.9729   1.0966   1.8821
     2.0331   2.1181   2.2518   2.8070   2.9091   3.0841   3.4018   3.4246
     3.7462   3.9227   4.0046   4.0902   4.2317   4.3673   4.4166   4.7006
     4.7313   4.9363   5.8350   5.9058   5.9097   6.1044   6.4028   6.6238
     6.8482   7.1560

          k = 0.0000 0.0000-0.2971 ( 36410 PWs)   bands (ev):

   -44.1385 -44.1385 -22.2589 -22.2589 -22.1678 -22.1678 -22.0714 -22.0714
    -7.9016  -7.9016  -6.9871  -6.9871  -5.9309  -5.9309  -4.7915  -4.7915
    -4.2146  -4.2146   0.5850   0.5850   0.9512   0.9512   1.3454   1.3454
     2.1776   2.1776   2.6011   2.6011   2.8661   2.8661   3.5538   3.5538
     3.9155   3.9155   4.0687   4.0687   4.3313   4.3313   4.4075   4.4075
     4.7019   4.7019   5.9013   5.9013   6.2251   6.2251   6.4709   6.4709
     6.8851   6.8851

          k = 0.2541 0.0645 0.0000 ( 36396 PWs)   bands (ev):

   -44.1382 -44.1382 -22.2569 -22.2569 -22.1774 -22.1774 -22.0704 -22.0703
    -7.8929  -7.6196  -7.0611  -6.8619  -6.1453  -5.3672  -4.8629  -4.7713
    -4.7208  -3.9730   0.3713   0.8818   0.9264   1.1180   1.2531   1.4619
     1.6482   1.7980   1.8124   2.5802   2.6068   3.2253   3.2559   3.7168
     3.7645   3.7727   3.8542   3.8569   4.0501   4.2522   4.3190   4.3606
     4.4816   4.5684   5.8730   5.9786   6.1895   6.5475   6.6156   6.6594
     7.0272   7.2028

          k = 0.2541 0.0645 0.1485 ( 36423 PWs)   bands (ev):

   -44.1382 -44.1382 -22.2569 -22.2569 -22.1774 -22.1774 -22.0704 -22.0703
    -7.8634  -7.6765  -7.0122  -6.8788  -6.0748  -5.5764  -4.7786  -4.7303
    -4.6257  -4.0624   0.4329   0.8935   0.9277   0.9698   1.2030   1.3211
     1.7384   1.8742   2.1571   2.5739   2.5899   2.9548   3.3810   3.3891
     3.5366   3.8117   3.9492   3.9904   4.0457   4.1835   4.3687   4.3822
     4.6890   4.7823   5.8648   5.9741   6.1462   6.2499   6.3669   6.7711
     7.2141   7.2739

          k = 0.2541 0.0645-0.2971 ( 36436 PWs)   bands (ev):

   -44.1382 -44.1382 -22.2569 -22.2569 -22.1774 -22.1774 -22.0703 -22.0703
    -7.7819  -7.7819  -6.9314  -6.9314  -5.8706  -5.8706  -4.7531  -4.7531
    -4.3044  -4.3044   0.6170   0.6170   1.0300   1.0300   1.1260   1.1260
     1.9419   1.9419   2.4838   2.4838   2.6596   2.6596   3.2325   3.2325
     3.6544   3.6544   3.9746   3.9746   4.1391   4.1391   4.3884   4.3884
     4.9747   4.9747   5.7919   5.7919   6.1483   6.1483   6.4531   6.4531
     7.3837   7.3837

          k = 0.5081 0.1290 0.0000 ( 36499 PWs)   bands (ev):

   -44.1373 -44.1373 -22.2522 -22.2522 -22.2006 -22.2006 -22.0677 -22.0676
    -7.5408  -7.2749  -6.9008  -6.7387  -5.9652  -5.2549  -5.0274  -4.6579
    -4.6104  -4.4614   0.2340   0.5548   0.6592   1.1748   1.1773   1.3113
     1.6343   1.7046   1.8799   2.0937   2.1545   2.3196   2.4949   3.4057
     3.5064   3.5106   3.5809   3.6005   3.7715   3.8575   3.9608   4.1978
     4.3558   4.9619   5.7020   6.1073   6.1944   6.6004   6.6253   6.9981
     7.4505   7.5604

          k = 0.5081 0.1290 0.1485 ( 36476 PWs)   bands (ev):

   -44.1373 -44.1373 -22.2522 -22.2522 -22.2006 -22.2006 -22.0677 -22.0676
    -7.5128  -7.3326  -6.8586  -6.7523  -5.8965  -5.4501  -4.8730  -4.6421
    -4.6275  -4.4848   0.2716   0.5541   0.7602   0.9447   1.2237   1.3043
     1.4086   1.5691   2.0105   2.0942   2.3506   2.4551   2.8289   3.4021
     3.4360   3.5002   3.5114   3.6317   3.7375   3.7647   3.8569   4.2424
     4.3012   4.4828   6.1905   6.2264   6.3805   6.6009   6.6733   6.8649
     7.2954   7.5203

          k = 0.5081 0.1290-0.2971 ( 36466 PWs)   bands (ev):

   -44.1373 -44.1373 -22.2522 -22.2522 -22.2006 -22.2006 -22.0676 -22.0676
    -7.4350  -7.4350  -6.7938  -6.7938  -5.7078  -5.7078  -4.7236  -4.7236
    -4.5539  -4.5539   0.4074   0.4074   0.9956   0.9956   1.0342   1.0342
     1.4410   1.4410   2.0559   2.0559   2.6822   2.6822   3.1762   3.1762
     3.3982   3.3982   3.5662   3.5662   3.7328   3.7328   3.8650   3.8650
     4.3225   4.3225   6.4303   6.4303   6.5663   6.5663   6.8624   6.8624
     7.1852   7.1852

          k = 0.7622 0.1934 0.0000 ( 36521 PWs)   bands (ev):

   -44.1364 -44.1364 -22.2475 -22.2475 -22.2237 -22.2237 -22.0649 -22.0649
    -7.0265  -6.7518  -6.7357  -6.5665  -5.7403  -5.4456  -5.1787  -5.1317
    -4.5323  -4.4952  -0.0845   0.0188   0.3773   0.9633   0.9756   1.2839
     1.4851   1.6015   1.9939   2.1514   2.2343   2.2883   2.4326   2.8008
     2.9390   3.2612   3.3508   3.4844   3.5282   3.6681   3.7290   3.7869
     3.8240   4.5719   6.0217   6.3931   6.4606   6.8907   6.9124   6.9827
     7.3512   7.6343

          k = 0.7622 0.1934 0.1485 ( 36503 PWs)   bands (ev):

   -44.1364 -44.1364 -22.2475 -22.2475 -22.2237 -22.2237 -22.0649 -22.0649
    -7.0027  -6.8422  -6.6637  -6.5773  -5.6948  -5.4855  -5.1760  -5.1408
    -4.5243  -4.4986  -0.0661   0.1664   0.2658   0.8473   0.9726   1.2392
     1.4963   1.6115   1.9694   2.0464   2.1248   2.6032   2.6927   2.8797
     2.9100   3.0596   3.2714   3.3793   3.5196   3.6161   3.6945   3.9319
     3.9787   4.4847   5.8306   6.3928   6.6977   6.8207   6.9953   7.0099
     7.1319   7.6287

          k = 0.7622 0.1934-0.2971 ( 36522 PWs)   bands (ev):

   -44.1364 -44.1364 -22.2475 -22.2475 -22.2237 -22.2237 -22.0649 -22.0649
    -6.9363  -6.9363  -6.6093  -6.6093  -5.5880  -5.5880  -5.1611  -5.1611
    -4.5092  -4.5092   0.0628   0.0628   0.4953   0.4953   1.0822   1.0822
     1.5612   1.5612   2.0097   2.0097   2.4038   2.4038   2.8321   2.8321
     2.9778   2.9778   3.2946   3.2946   3.5978   3.5978   3.9278   3.9278
     4.0670   4.0670   6.2526   6.2526   6.4871   6.4871   7.0261   7.0261
     7.4962   7.4962

          k =-1.0162-0.2579 0.0000 ( 36506 PWs)   bands (ev):

   -44.1360 -44.1360 -22.2454 -22.2454 -22.2333 -22.2333 -22.0638 -22.0638
    -6.7340  -6.7136  -6.1167  -6.1055  -6.0798  -6.0740  -5.2593  -5.2587
    -4.4748  -4.4471  -0.0769  -0.0561   0.2356   0.2573   1.0111   1.0197
     1.4673   1.6647   2.2255   2.3888   2.4046   2.4259   2.8131   2.8159
     2.8208   2.8311   3.1942   3.2520   3.3166   3.3828   3.4576   3.6616
     3.8689   4.1479   6.6211   6.6640   6.6848   6.6952   7.0745   7.1709
     7.1744   7.2231

          k =-1.0162-0.2579 0.1485 ( 36506 PWs)   bands (ev):

   -44.1360 -44.1360 -22.2454 -22.2454 -22.2333 -22.2333 -22.0638 -22.0638
    -6.7298  -6.7153  -6.1426  -6.1350  -6.0526  -6.0481  -5.2571  -5.2568
    -4.4735  -4.4540  -0.1731  -0.1667   0.4420   0.4497   1.0067   1.0198
     1.4617   1.5935   2.0329   2.1473   2.3613   2.3968   2.6748   2.6829
     2.9335   3.0483   3.0838   3.1970   3.5514   3.5659   3.6072   3.7377
     4.0451   4.1872   6.1381   6.1575   6.5332   6.6098   7.1730   7.1870
     7.3824   7.4454

          k =-1.0162-0.2579-0.2971 ( 36528 PWs)   bands (ev):

   -44.1360 -44.1360 -22.2454 -22.2454 -22.2333 -22.2333 -22.0638 -22.0638
    -6.7213  -6.7213  -6.1553  -6.1553  -6.0350  -6.0350  -5.2549  -5.2549
    -4.4665  -4.4665  -0.2326  -0.2326   0.6547   0.6547   0.9657   0.9657
     1.5139   1.5139   1.8516   1.8516   2.3628   2.3628   2.7640   2.7640
     2.8634   2.8634   3.1759   3.1759   3.6363   3.6363   3.8009   3.8009
     4.3254   4.3254   5.7400   5.7400   6.4807   6.4807   7.1976   7.1976
     7.5054   7.5054

          k = 0.5081 0.0000 0.0000 ( 36503 PWs)   bands (ev):

   -44.1373 -44.1373 -22.2522 -22.2522 -22.2006 -22.2006 -22.0677 -22.0676
    -7.5437  -7.2754  -6.9014  -6.7361  -5.9620  -5.2547  -5.0248  -4.6518
    -4.6177  -4.4609   0.2390   0.5521   0.6556   1.1729   1.2149   1.2378
     1.6293   1.6986   1.8662   2.0998   2.1549   2.3018   2.4960   3.3981
     3.5286   3.5530   3.5687   3.5860   3.7808   3.9122   3.9437   4.2353
     4.3580   4.9555   5.7080   6.0836   6.2295   6.5629   6.5734   7.0346
     7.4603   7.5796

          k = 0.5081 0.0000 0.1485 ( 36453 PWs)   bands (ev):

   -44.1373 -44.1373 -22.2522 -22.2522 -22.2006 -22.2006 -22.0677 -22.0676
    -7.5156  -7.3339  -6.8580  -6.7497  -5.8940  -5.4496  -4.8691  -4.6433
    -4.6269  -4.4862   0.2747   0.5479   0.7613   0.9497   1.2569   1.2596
     1.3781   1.5468   2.0088   2.1060   2.3598   2.4223   2.8272   3.4127
     3.4716   3.4773   3.5115   3.6416   3.7266   3.8328   3.8389   4.2881
     4.3083   4.4710   6.1803   6.2369   6.3996   6.5547   6.6359   6.8977
     7.3128   7.5321

          k = 0.5081 0.0000-0.2971 ( 36452 PWs)   bands (ev):

   -44.1373 -44.1373 -22.2522 -22.2522 -22.2006 -22.2006 -22.0676 -22.0676
    -7.4373  -7.4373  -6.7917  -6.7917  -5.7065  -5.7065  -4.7198  -4.7198
    -4.5567  -4.5567   0.4060   0.4060   0.9972   0.9972   1.0391   1.0391
     1.4051   1.4051   2.0591   2.0591   2.6726   2.6726   3.1728   3.1728
     3.4049   3.4049   3.5745   3.5745   3.7624   3.7624   3.8594   3.8594
     4.3416   4.3416   6.4456   6.4456   6.5301   6.5301   6.8805   6.8805
     7.1860   7.1860

          k = 0.7622 0.0645 0.0000 ( 36505 PWs)   bands (ev):

   -44.1364 -44.1364 -22.2475 -22.2474 -22.2237 -22.2237 -22.0649 -22.0649
    -7.0336  -6.7493  -6.7368  -6.5605  -5.7404  -5.4430  -5.1792  -5.1308
    -4.5220  -4.5064  -0.0751   0.0156   0.3891   0.9649   0.9947   1.2976
     1.4508   1.5644   1.9592   2.1734   2.2633   2.2677   2.3684   2.7764
     2.9283   3.3078   3.3664   3.5333   3.5391   3.6497   3.6977   3.7991
     3.8313   4.6001   6.0191   6.3712   6.4733   6.8849   6.9422   6.9477
     7.3634   7.6602

          k = 0.7622 0.0645 0.1485 ( 36509 PWs)   bands (ev):

   -44.1364 -44.1364 -22.2475 -22.2475 -22.2237 -22.2237 -22.0649 -22.0649
    -7.0095  -6.8450  -6.6595  -6.5711  -5.6953  -5.4843  -5.1755  -5.1398
    -4.5171  -4.5064  -0.0580   0.1640   0.2742   0.8375   0.9998   1.2534
     1.4655   1.6095   1.9790   2.0040   2.0564   2.6101   2.6884   2.8735
     2.8890   3.0641   3.3183   3.3843   3.5620   3.6051   3.6666   3.9664
     3.9839   4.4796   5.8552   6.3703   6.7123   6.8221   6.9763   7.0422
     7.1045   7.6497

          k = 0.7622 0.0645-0.2971 ( 36472 PWs)   bands (ev):

   -44.1364 -44.1364 -22.2475 -22.2475 -22.2237 -22.2237 -22.0649 -22.0649
    -6.9417  -6.9417  -6.6033  -6.6033  -5.5883  -5.5883  -5.1600  -5.1600
    -4.5094  -4.5094   0.0711   0.0711   0.4881   0.4881   1.1033   1.1033
     1.5555   1.5555   1.9571   1.9571   2.3907   2.3907   2.8357   2.8357
     2.9598   2.9598   3.3492   3.3492   3.5949   3.5949   3.9194   3.9194
     4.0756   4.0756   6.2791   6.2791   6.4869   6.4869   6.9951   6.9951
     7.5238   7.5238

          k = 1.0162 0.1290 0.0000 ( 36514 PWs)   bands (ev):

   -44.1360 -44.1360 -22.2454 -22.2454 -22.2333 -22.2333 -22.0638 -22.0638
    -6.7340  -6.7136  -6.1165  -6.1057  -6.0798  -6.0740  -5.2593  -5.2587
    -4.4748  -4.4471  -0.0826  -0.0502   0.2323   0.2608   1.0038   1.0280
     1.4737   1.6550   2.2227   2.3927   2.4044   2.4218   2.7860   2.8123
     2.8273   2.8712   3.2137   3.2288   3.2959   3.3696   3.5060   3.6420
     3.8532   4.1632   6.6156   6.6503   6.6988   6.7031   7.0967   7.1714
     7.1765   7.2058

          k = 1.0162 0.1290 0.1485 ( 36524 PWs)   bands (ev):

   -44.1360 -44.1360 -22.2454 -22.2454 -22.2333 -22.2333 -22.0638 -22.0638
    -6.7298  -6.7153  -6.1425  -6.1350  -6.0526  -6.0482  -5.2571  -5.2568
    -4.4735  -4.4540  -0.1754  -0.1647   0.4434   0.4489   1.0069   1.0198
     1.4675   1.5876   2.0440   2.1302   2.3631   2.3936   2.6419   2.7223
     2.9387   3.0621   3.0779   3.1870   3.5217   3.5823   3.6289   3.7305
     4.0233   4.2065   6.1321   6.1678   6.5298   6.6124   7.1768   7.1866
     7.3921   7.4369

          k = 1.0162 0.1290-0.2971 ( 36516 PWs)   bands (ev):

   -44.1360 -44.1360 -22.2454 -22.2454 -22.2333 -22.2333 -22.0638 -22.0638
    -6.7213  -6.7213  -6.1553  -6.1553  -6.0350  -6.0350  -5.2549  -5.2549
    -4.4665  -4.4665  -0.2327  -0.2327   0.6551   0.6551   0.9655   0.9655
     1.5150   1.5150   1.8524   1.8524   2.3552   2.3552   2.7465   2.7465
     2.8996   2.8996   3.1618   3.1618   3.6385   3.6385   3.7991   3.7991
     4.3259   4.3259   5.7426   5.7426   6.4801   6.4801   7.1988   7.1988
     7.5065   7.5065

          k =-0.7622-0.3224 0.0000 ( 36511 PWs)   bands (ev):

   -44.1364 -44.1364 -22.2475 -22.2475 -22.2237 -22.2237 -22.0649 -22.0649
    -7.0158  -6.7561  -6.7341  -6.5747  -5.7400  -5.4493  -5.1779  -5.1330
    -4.5403  -4.4861  -0.0975   0.0234   0.3607   0.9297   0.9907   1.2672
     1.5038   1.6663   2.0648   2.1265   2.2325   2.3128   2.4565   2.8373
     2.9502   3.2153   3.3370   3.4722   3.5193   3.6298   3.6743   3.7502
     3.9262   4.5234   6.0256   6.3999   6.4794   6.8087   6.9545   7.0491
     7.3228   7.5983

          k =-0.7622-0.3224 0.1485 ( 36492 PWs)   bands (ev):

   -44.1364 -44.1364 -22.2475 -22.2475 -22.2237 -22.2237 -22.0649 -22.0649
    -6.9926  -6.8382  -6.6700  -6.5859  -5.6943  -5.4873  -5.1766  -5.1422
    -4.5298  -4.4922  -0.0775   0.1708   0.2531   0.8594   0.9440   1.2199
     1.5276   1.6204   1.9565   2.1423   2.1943   2.5972   2.6779   2.8991
     2.9229   3.0772   3.2214   3.3584   3.4745   3.5935   3.7357   3.8792
     3.9853   4.4901   5.7980   6.4286   6.6680   6.8168   6.9595   7.0597
     7.1589   7.5844

          k =-0.7622-0.3224-0.2971 ( 36508 PWs)   bands (ev):

   -44.1364 -44.1364 -22.2475 -22.2475 -22.2237 -22.2237 -22.0649 -22.0649
    -6.9283  -6.9283  -6.6182  -6.6182  -5.5875  -5.5875  -5.1626  -5.1626
    -4.5089  -4.5089   0.0514   0.0514   0.5050   0.5050   1.0572   1.0572
     1.5695   1.5695   2.0714   2.0714   2.4383   2.4383   2.8279   2.8279
     3.0041   3.0041   3.2174   3.2174   3.5953   3.5953   3.9121   3.9121
     4.0800   4.0800   6.2188   6.2188   6.4858   6.4858   7.0763   7.0763
     7.4477   7.4477

          k =-0.5081-0.2579 0.0000 ( 36480 PWs)   bands (ev):

   -44.1373 -44.1373 -22.2522 -22.2522 -22.2006 -22.2006 -22.0677 -22.0676
    -7.5335  -7.2736  -6.8999  -6.7444  -5.9732  -5.2554  -5.0339  -4.6669
    -4.5984  -4.4626   0.2221   0.5624   0.6633   1.1566   1.1876   1.4209
     1.6427   1.7285   1.9140   2.0820   2.1494   2.3551   2.4901   3.3960
     3.4256   3.5103   3.5575   3.6413   3.7285   3.7600   3.9917   4.1155
     4.3464   4.9753   5.6900   6.1016   6.1746   6.6970   6.7482   6.9120
     7.4169   7.5170

          k =-0.5081-0.2579 0.1485 ( 36485 PWs)   bands (ev):

   -44.1373 -44.1373 -22.2522 -22.2522 -22.2006 -22.2006 -22.0677 -22.0676
    -7.5059  -7.3293  -6.8606  -6.7581  -5.9027  -5.4512  -4.8823  -4.6392
    -4.6289  -4.4816   0.2643   0.5687   0.7567   0.9327   1.2126   1.3356
     1.4976   1.6319   2.0046   2.0734   2.3476   2.5080   2.8324   3.3243
     3.4417   3.4904   3.5266   3.6184   3.6294   3.7596   3.8777   4.1581
     4.2660   4.5040   6.1851   6.2263   6.3396   6.7004   6.7758   6.7947
     7.2460   7.4955

          k =-0.5081-0.2579-0.2971 ( 36478 PWs)   bands (ev):

   -44.1373 -44.1373 -22.2522 -22.2522 -22.2006 -22.2006 -22.0676 -22.0676
    -7.4293  -7.4293  -6.7988  -6.7988  -5.7107  -5.7107  -4.7322  -4.7322
    -4.5477  -4.5477   0.4105   0.4105   0.9901   0.9901   1.0268   1.0268
     1.5337   1.5337   2.0430   2.0430   2.7106   2.7106   3.1689   3.1689
     3.3803   3.3803   3.5264   3.5264   3.6944   3.6944   3.8759   3.8759
     4.2780   4.2780   6.3955   6.3955   6.6437   6.6437   6.8223   6.8223
     7.1907   7.1907

          k =-0.2541-0.1934 0.0000 ( 36410 PWs)   bands (ev):

   -44.1382 -44.1382 -22.2569 -22.2569 -22.1774 -22.1774 -22.0704 -22.0703
    -7.8879  -7.6187  -7.0565  -6.8656  -6.1574  -5.3700  -4.8734  -4.7771
    -4.7079  -3.9739   0.3955   0.8876   0.9941   1.1133   1.2817   1.4979
     1.6736   1.7982   1.8377   2.5486   2.5973   3.2378   3.2855   3.6785
     3.7212   3.7255   3.8230   3.8673   3.9066   4.1933   4.3065   4.3267
     4.3641   4.6102   5.9297   6.0142   6.2621   6.5553   6.6135   6.7183
     7.0032   7.1226

          k =-0.2541-0.1934 0.1485 ( 36427 PWs)   bands (ev):

   -44.1382 -44.1382 -22.2569 -22.2569 -22.1774 -22.1774 -22.0704 -22.0703
    -7.8587  -7.6743  -7.0101  -6.8822  -6.0849  -5.5798  -4.7960  -4.7230
    -4.6203  -4.0625   0.4563   0.8945   0.9403   1.0463   1.2363   1.3376
     1.7468   1.8781   2.1884   2.5472   2.5816   2.9441   3.3991   3.4330
     3.5469   3.7174   3.8221   3.9039   3.9985   4.1562   4.3247   4.3341
     4.6721   4.7958   5.8601   5.9980   6.1463   6.3220   6.4336   6.7712
     7.1745   7.2638

          k =-0.2541-0.1934-0.2971 ( 36422 PWs)   bands (ev):

   -44.1382 -44.1382 -22.2569 -22.2569 -22.1774 -22.1774 -22.0703 -22.0703
    -7.7780  -7.7780  -6.9331  -6.9331  -5.8767  -5.8767  -4.7571  -4.7571
    -4.3026  -4.3026   0.6363   0.6363   1.0676   1.0676   1.1526   1.1526
     1.9465   1.9465   2.4808   2.4808   2.6603   2.6603   3.2448   3.2448
     3.6534   3.6534   3.8329   3.8329   4.1157   4.1157   4.3355   4.3355
     4.9886   4.9886   5.7596   5.7596   6.1773   6.1773   6.5103   6.5103
     7.3705   7.3706

          k = 0.0000-0.1290 0.0000 ( 36417 PWs)   bands (ev):

   -44.1385 -44.1385 -22.2589 -22.2589 -22.1678 -22.1678 -22.0715 -22.0714
    -8.0118  -7.7370  -7.1253  -6.9123  -6.2137  -5.4165  -4.8420  -4.8164
    -4.7551  -3.8084   0.3044   0.7661   0.8408   1.1503   1.3900   1.5661
     2.0964   2.2893   2.2913   2.7814   2.9262   3.0050   3.3340   3.3518
     3.7260   3.8562   3.9033   4.0126   4.2859   4.3007   4.3557   4.7024
     4.7541   5.3941   5.6588   5.8895   5.9456   5.9584   6.0810   6.8028
     7.0321   7.2302

          k = 0.0000-0.1290 0.1485 ( 36419 PWs)   bands (ev):

   -44.1385 -44.1385 -22.2589 -22.2589 -22.1678 -22.1678 -22.0715 -22.0714
    -7.9819  -7.7937  -7.0738  -6.9307  -6.1430  -5.6315  -4.8193  -4.7681
    -4.5860  -3.9208   0.3774   0.8739   0.9162   0.9778   1.1171   1.8868
     2.0508   2.1182   2.2515   2.8131   2.9120   3.0897   3.3782   3.4607
     3.7396   3.8858   3.9122   3.9974   4.2284   4.3135   4.3713   4.6994
     4.7238   4.9290   5.8485   5.9293   5.9574   6.1101   6.4183   6.6277
     6.8492   7.1300

          k = 0.0000-0.1290-0.2971 ( 36464 PWs)   bands (ev):

   -44.1385 -44.1385 -22.2589 -22.2589 -22.1678 -22.1678 -22.0714 -22.0714
    -7.8996  -7.8996  -6.9875  -6.9875  -5.9351  -5.9351  -4.7935  -4.7935
    -4.2139  -4.2139   0.6042   0.6042   0.9760   0.9760   1.3514   1.3514
     2.1776   2.1776   2.6129   2.6129   2.8705   2.8705   3.5516   3.5516
     3.8530   3.8530   4.0607   4.0607   4.2453   4.2453   4.4065   4.4065
     4.6993   4.6993   5.9259   5.9259   6.2386   6.2386   6.4740   6.4740
     6.8790   6.8790

          k = 1.0162 0.0000 0.0000 ( 36499 PWs)   bands (ev):

   -44.1360 -44.1360 -22.2454 -22.2454 -22.2333 -22.2333 -22.0638 -22.0638
    -6.7340  -6.7136  -6.1163  -6.1058  -6.0798  -6.0740  -5.2593  -5.2588
    -4.4748  -4.4472  -0.0868  -0.0459   0.2297   0.2635   0.9998   1.0328
     1.4811   1.6443   2.2200   2.3985   2.4044   2.4160   2.7780   2.8135
     2.8216   2.8997   3.2179   3.2386   3.2688   3.3507   3.5833   3.5872
     3.8392   4.1769   6.6109   6.6420   6.7074   6.7103   7.1338   7.1721
     7.1737   7.1784

          k = 1.0162 0.0000 0.1485 ( 36485 PWs)   bands (ev):

   -44.1360 -44.1360 -22.2454 -22.2454 -22.2333 -22.2333 -22.0638 -22.0638
    -6.7298  -6.7153  -6.1424  -6.1351  -6.0525  -6.0482  -5.2572  -5.2567
    -4.4735  -4.4540  -0.1771  -0.1634   0.4456   0.4472   1.0072   1.0196
     1.4742   1.5808   2.0616   2.1066   2.3681   2.3872   2.6300   2.7387
     2.9489   3.0670   3.0801   3.1744   3.5073   3.5833   3.6548   3.7193
     4.0052   4.2222   6.1288   6.1754   6.5267   6.6148   7.1824   7.1843
     7.4138   7.4165

          k = 1.0162 0.0000-0.2971 ( 36514 PWs)   bands (ev):

   -44.1360 -44.1360 -22.2454 -22.2454 -22.2333 -22.2333 -22.0638 -22.0638
    -6.7213  -6.7213  -6.1553  -6.1553  -6.0350  -6.0350  -5.2549  -5.2549
    -4.4665  -4.4665  -0.2329  -0.2329   0.6555   0.6555   0.9653   0.9653
     1.5162   1.5162   1.8532   1.8532   2.3477   2.3477   2.7348   2.7348
     2.9325   2.9325   3.1451   3.1451   3.6408   3.6408   3.7974   3.7974
     4.3264   4.3264   5.7452   5.7452   6.4794   6.4794   7.1999   7.1999
     7.5076   7.5076

          k = 1.2703 0.0645 0.0000 ( 36468 PWs)   bands (ev):

   -44.1364 -44.1364 -22.2475 -22.2475 -22.2237 -22.2237 -22.0649 -22.0649
    -7.0076  -6.7600  -6.7329  -6.5802  -5.7399  -5.4519  -5.1773  -5.1339
    -4.5445  -4.4811  -0.1065   0.0269   0.3489   0.9108   1.0013   1.2564
     1.5068   1.7141   2.1110   2.1407   2.2438   2.3290   2.4275   2.8657
     2.9537   3.1812   3.3692   3.4897   3.5027   3.5917   3.6151   3.7046
     4.0164   4.4780   6.0283   6.3962   6.5111   6.7491   6.9869   7.1110
     7.2870   7.5886

          k = 1.2703 0.0645 0.1485 ( 36490 PWs)   bands (ev):

   -44.1364 -44.1364 -22.2475 -22.2475 -22.2237 -22.2237 -22.0649 -22.0649
    -6.9850  -6.8356  -6.6749  -6.5920  -5.6938  -5.4885  -5.1769  -5.1433
    -4.5327  -4.4886  -0.0855   0.1751   0.2432   0.8651   0.9302   1.2074
     1.5413   1.6320   1.9531   2.2100   2.2498   2.5979   2.6445   2.9114
     2.9326   3.1065   3.1904   3.3296   3.4723   3.5454   3.7640   3.8319
     4.0040   4.4924   5.7767   6.4590   6.6385   6.8134   6.9397   7.1154
     7.1676   7.5422

          k = 1.2703 0.0645-0.2971 ( 36480 PWs)   bands (ev):

   -44.1364 -44.1364 -22.2475 -22.2475 -22.2237 -22.2237 -22.0649 -22.0649
    -6.9223  -6.9223  -6.6247  -6.6247  -5.5872  -5.5872  -5.1638  -5.1638
    -4.5087  -4.5087   0.0436   0.0436   0.5114   0.5114   1.0423   1.0423
     1.5758   1.5758   2.1039   2.1039   2.4792   2.4792   2.8265   2.8265
     3.0231   3.0231   3.1587   3.1587   3.5899   3.5899   3.8869   3.8869
     4.1020   4.1020   6.1970   6.1970   6.4842   6.4842   7.1182   7.1182
     7.4042   7.4042

          k =-0.5081-0.3869 0.0000 ( 36463 PWs)   bands (ev):

   -44.1373 -44.1373 -22.2522 -22.2522 -22.2006 -22.2006 -22.0677 -22.0676
    -7.5260  -7.2723  -6.8998  -6.7494  -5.9813  -5.2559  -5.0403  -4.6726
    -4.5897  -4.4637   0.2106   0.5728   0.6596   1.1585   1.1976   1.5393
     1.6515   1.7424   1.9502   2.0624   2.1758   2.3583   2.4817   3.2866
     3.4521   3.5019   3.5267   3.6571   3.6885   3.7272   3.9218   4.1136
     4.3339   4.9856   5.6802   6.0138   6.2418   6.8044   6.8265   6.8769
     7.3541   7.4928

          k =-0.5081-0.3869 0.1485 ( 36477 PWs)   bands (ev):

   -44.1373 -44.1373 -22.2522 -22.2522 -22.2006 -22.2006 -22.0677 -22.0676
    -7.4988  -7.3260  -6.8631  -6.7634  -5.9089  -5.4522  -4.8914  -4.6362
    -4.6307  -4.4785   0.2573   0.5828   0.7515   0.9210   1.2149   1.3537
     1.6101   1.7044   1.9834   2.0514   2.3682   2.5281   2.8356   3.2299
     3.4535   3.4703   3.5070   3.5562   3.6407   3.7421   3.8794   4.1154
     4.2145   4.5216   6.1367   6.2573   6.3134   6.7076   6.8047   6.9101
     7.1777   7.4866

          k =-0.5081-0.3869-0.2971 ( 36492 PWs)   bands (ev):

   -44.1373 -44.1373 -22.2522 -22.2522 -22.2006 -22.2006 -22.0676 -22.0676
    -7.4236  -7.4236  -6.8041  -6.8041  -5.7136  -5.7136  -4.7404  -4.7404
    -4.5420  -4.5420   0.4133   0.4133   0.9836   0.9836   1.0227   1.0227
     1.6443   1.6443   2.0159   2.0159   2.7509   2.7509   3.1172   3.1172
     3.3684   3.3684   3.4872   3.4872   3.6817   3.6817   3.8812   3.8812
     4.2383   4.2383   6.3625   6.3625   6.6875   6.6875   6.8049   6.8049
     7.2136   7.2136

          k =-0.2541-0.3224 0.0000 ( 36485 PWs)   bands (ev):

   -44.1382 -44.1382 -22.2569 -22.2569 -22.1774 -22.1774 -22.0704 -22.0703
    -7.8808  -7.6174  -7.0506  -6.8699  -6.1750  -5.3739  -4.8890  -4.7777
    -4.6968  -3.9752   0.4209   0.8979   1.1041   1.1119   1.3301   1.5694
     1.7107   1.7989   1.8747   2.4791   2.5542   3.2267   3.3853   3.5301
     3.6034   3.6930   3.7204   3.8384   3.9503   4.1372   4.1716   4.2813
     4.3128   4.6421   6.0195   6.0487   6.3286   6.5685   6.6356   6.7845
     6.9255   7.0467

          k =-0.2541-0.3224 0.1485 ( 36445 PWs)   bands (ev):

   -44.1382 -44.1382 -22.2569 -22.2569 -22.1774 -22.1774 -22.0704 -22.0703
    -7.8519  -7.6712  -7.0077  -6.8864  -6.0994  -5.5844  -4.8153  -4.7169
    -4.6137  -4.0626   0.4802   0.9010   0.9535   1.1695   1.3072   1.3643
     1.7674   1.8833   2.2368   2.4822   2.5430   2.9433   3.4056   3.4903
     3.5236   3.5545   3.6571   3.9009   3.9256   4.0991   4.2389   4.2953
     4.6826   4.7969   5.8541   6.0303   6.1471   6.3702   6.5309   6.7605
     7.1405   7.2465

          k =-0.2541-0.3224-0.2971 ( 36442 PWs)   bands (ev):

   -44.1382 -44.1382 -22.2569 -22.2569 -22.1774 -22.1774 -22.0703 -22.0703
    -7.7725  -7.7725  -6.9355  -6.9355  -5.8852  -5.8852  -4.7630  -4.7630
    -4.3000  -4.3000   0.6550   0.6550   1.0990   1.0990   1.2385   1.2385
     1.9563   1.9563   2.4597   2.4597   2.6588   2.6588   3.2602   3.2602
     3.5175   3.5175   3.8009   3.8009   4.0596   4.0596   4.2745   4.2745
     5.0076   5.0076   5.7244   5.7244   6.1782   6.1782   6.5938   6.5938
     7.3556   7.3556

          k = 0.0000-0.2579 0.0000 ( 36445 PWs)   bands (ev):

   -44.1385 -44.1385 -22.2589 -22.2589 -22.1678 -22.1678 -22.0715 -22.0714
    -8.0054  -7.7358  -7.1176  -6.9163  -6.2328  -5.4216  -4.8678  -4.8094
    -4.7413  -3.8096   0.3384   0.7759   0.9503   1.2009   1.4162   1.6315
     2.0967   2.2878   2.2897   2.7991   2.9316   3.0214   3.2955   3.4579
     3.5122   3.6534   3.8289   3.9552   4.1571   4.2230   4.3011   4.7005
     4.7252   5.3536   5.7101   5.9489   5.9644   6.0382   6.1670   6.7984
     7.0322   7.1379

          k = 0.0000-0.2579 0.1485 ( 36452 PWs)   bands (ev):

   -44.1385 -44.1385 -22.2589 -22.2589 -22.1678 -22.1678 -22.0715 -22.0714
    -7.9759  -7.7909  -7.0697  -6.9342  -6.1591  -5.6374  -4.8374  -4.7607
    -4.5817  -3.9211   0.4101   0.9270   0.9702   1.0324   1.1707   1.8994
     2.0930   2.1185   2.2507   2.8285   2.9189   3.0936   3.3310   3.4569
     3.6488   3.6689   3.8866   3.9085   4.1884   4.2201   4.2493   4.6967
     4.7064   4.9220   5.8891   5.9834   6.0225   6.1242   6.4460   6.6198
     6.8517   7.0714

          k = 0.0000-0.2579-0.2971 ( 36454 PWs)   bands (ev):

   -44.1385 -44.1385 -22.2589 -22.2589 -22.1678 -22.1678 -22.0714 -22.0714
    -7.8947  -7.8947  -6.9885  -6.9885  -5.9452  -5.9452  -4.7984  -4.7984
    -4.2123  -4.2123   0.6389   0.6389   1.0589   1.0589   1.3670   1.3670
     2.1776   2.1776   2.6406   2.6406   2.8813   2.8813   3.4398   3.4398
     3.7774   3.7774   4.0409   4.0409   4.1202   4.1202   4.3738   4.3738
     4.6934   4.6934   5.9584   5.9584   6.2706   6.2706   6.4814   6.4814
     6.8534   6.8534

          k = 1.5243 0.0000 0.0000 ( 36439 PWs)   bands (ev):

   -44.1373 -44.1373 -22.2522 -22.2522 -22.2006 -22.2006 -22.0677 -22.0676
    -7.5229  -7.2718  -6.9001  -6.7511  -5.9848  -5.2561  -5.0430  -4.6744
    -4.5867  -4.4642   0.2059   0.5785   0.6552   1.1621   1.2017   1.6051
     1.6760   1.7084   1.9660   2.0540   2.2199   2.3276   2.4769   3.2460
     3.4566   3.4671   3.5331   3.6574   3.7036   3.7427   3.8351   4.1354
     4.3281   4.9888   5.6766   5.9762   6.2728   6.7905   6.8545   6.9366
     7.3116   7.5318

          k = 1.5243 0.0000 0.1485 ( 36476 PWs)   bands (ev):

   -44.1373 -44.1373 -22.2522 -22.2522 -22.2006 -22.2006 -22.0677 -22.0676
    -7.4958  -7.3246  -6.8644  -6.7655  -5.9115  -5.4527  -4.8950  -4.6347
    -4.6318  -4.4772   0.2544   0.5886   0.7488   0.9163   1.2176   1.3600
     1.6856   1.7178   1.9792   2.0286   2.3938   2.5162   2.8363   3.1937
     3.4090   3.4754   3.5024   3.5650   3.6615   3.7274   3.8511   4.1406
     4.1694   4.5286   6.1115   6.2722   6.3068   6.6778   6.8441   6.9803
     7.1321   7.5036

          k = 1.5243 0.0000-0.2971 ( 36508 PWs)   bands (ev):

   -44.1373 -44.1373 -22.2522 -22.2522 -22.2006 -22.2006 -22.0676 -22.0676
    -7.4211  -7.4211  -6.8063  -6.8063  -5.7148  -5.7148  -4.7437  -4.7437
    -4.5398  -4.5398   0.4144   0.4144   0.9810   0.9810   1.0214   1.0214
     1.7017   1.7017   1.9947   1.9947   2.7749   2.7749   3.0751   3.0751
     3.3696   3.3696   3.4763   3.4763   3.6782   3.6782   3.8804   3.8804
     4.2245   4.2245   6.3492   6.3492   6.6870   6.6870   6.8118   6.8118
     7.2313   7.2313

          k =-0.2541-0.4514 0.0000 ( 36444 PWs)   bands (ev):

   -44.1382 -44.1382 -22.2569 -22.2569 -22.1774 -22.1774 -22.0704 -22.0703
    -7.8756  -7.6165  -7.0470  -6.8722  -6.1877  -5.3765  -4.8999  -4.7756
    -4.6915  -3.9761   0.4325   0.9071   1.0956   1.2344   1.3415   1.6532
     1.7379   1.7984   1.9107   2.4036   2.4819   3.2391   3.3829   3.4612
     3.4768   3.7206   3.7475   3.8374   3.8926   4.0915   4.1065   4.2118
     4.3112   4.6625   6.0661   6.0947   6.3560   6.5795   6.6601   6.8260
     6.8351   7.0182

          k =-0.2541-0.4514 0.1485 ( 36461 PWs)   bands (ev):

   -44.1382 -44.1382 -22.2569 -22.2569 -22.1774 -22.1774 -22.0704 -22.0703
    -7.8470  -7.6690  -7.0065  -6.8888  -6.1098  -5.5875  -4.8272  -4.7137
    -4.6095  -4.0626   0.4909   0.9095   0.9571   1.2837   1.3434   1.4111
     1.7960   1.8861   2.2865   2.4100   2.4656   2.9582   3.3412   3.3850
     3.4994   3.5449   3.7348   3.8649   3.8999   3.9673   4.2211   4.2677
     4.6980   4.7927   5.8507   6.0505   6.1576   6.3718   6.5978   6.7411
     7.1341   7.2325

          k =-0.2541-0.4514-0.2971 ( 36490 PWs)   bands (ev):

   -44.1382 -44.1382 -22.2569 -22.2569 -22.1774 -22.1774 -22.0703 -22.0703
    -7.7686  -7.7686  -6.9373  -6.9373  -5.8912  -5.8912  -4.7671  -4.7671
    -4.2982  -4.2982   0.6633   0.6633   1.1096   1.1096   1.3353   1.3353
     1.9678   1.9678   2.4162   2.4162   2.6603   2.6603   3.2520   3.2520
     3.4065   3.4065   3.8489   3.8489   3.9852   3.9852   4.2444   4.2444
     5.0211   5.0211   5.7031   5.7031   6.1661   6.1661   6.6459   6.6459
     7.3486   7.3486

          k = 0.0000-0.3869 0.0000 ( 36477 PWs)   bands (ev):

   -44.1385 -44.1385 -22.2589 -22.2589 -22.1678 -22.1678 -22.0715 -22.0714
    -7.9988  -7.7347  -7.1106  -6.9191  -6.2525  -5.4266  -4.8887  -4.8006
    -4.7343  -3.8108   0.3608   0.7868   1.0989   1.2627   1.4408   1.7039
     2.0971   2.2863   2.2901   2.8181   2.9364   3.0512   3.1518   3.2170
     3.5374   3.6143   3.8010   3.9532   4.0147   4.0476   4.3014   4.6965
     4.6988   5.3295   5.7618   5.9834   6.0221   6.0882   6.2248   6.7407
     7.0321   7.0854

          k = 0.0000-0.3869 0.1485 ( 36452 PWs)   bands (ev):

   -44.1385 -44.1385 -22.2589 -22.2589 -22.1678 -22.1678 -22.0715 -22.0714
    -7.9697  -7.7881  -7.0660  -6.9369  -6.1755  -5.6431  -4.8526  -4.7558
    -4.5779  -3.9213   0.4301   0.9480   1.0130   1.1662   1.2468   1.9145
     2.1188   2.1369   2.2499   2.8449   2.9255   3.0366   3.1646   3.3331
     3.5296   3.7293   3.8605   3.9218   4.0580   4.0918   4.2110   4.6885
     4.6953   4.9205   5.9385   6.0275   6.0560   6.1387   6.4615   6.5807
     6.8542   7.0270

          k = 0.0000-0.3869-0.2971 ( 36454 PWs)   bands (ev):

   -44.1385 -44.1385 -22.2589 -22.2589 -22.1678 -22.1678 -22.0714 -22.0714
    -7.8897  -7.8897  -6.9896  -6.9896  -5.9552  -5.9552  -4.8033  -4.8033
    -4.2106  -4.2106   0.6584   0.6584   1.1802   1.1802   1.3847   1.3847
     2.1777   2.1777   2.6617   2.6617   2.8925   2.8925   3.2070   3.2070
     3.8228   3.8228   4.0077   4.0077   4.0206   4.0206   4.3426   4.3426
     4.6879   4.6879   5.9684   5.9684   6.2986   6.2986   6.4892   6.4892
     6.8183   6.8183

          k =-2.0325 0.0000 0.0000 ( 36452 PWs)   bands (ev):

   -44.1385 -44.1385 -22.2589 -22.2589 -22.1678 -22.1678 -22.0715 -22.0714
    -7.9961  -7.7342  -7.1079  -6.9199  -6.2608  -5.4286  -4.8965  -4.7965
    -4.7327  -3.8113   0.3667   0.7915   1.2234   1.2372   1.4505   1.7476
     2.0972   2.2856   2.2910   2.8265   2.9382   3.0376   3.0684   3.0985
     3.5263   3.7643   3.7893   3.8651   3.9544   3.9774   4.3014   4.6848
     4.6982   5.3219   5.7829   5.9913   6.0607   6.1038   6.2428   6.6961
     7.0320   7.0763

          k =-2.0325 0.0000 0.1485 ( 36456 PWs)   bands (ev):

   -44.1385 -44.1385 -22.2589 -22.2589 -22.1678 -22.1678 -22.0715 -22.0714
    -7.9671  -7.7869  -7.0647  -6.9378  -6.1824  -5.6454  -4.8583  -4.7541
    -4.5765  -3.9214   0.4350   0.9563   1.0270   1.2458   1.2807   1.9215
     2.1189   2.1585   2.2496   2.8521   2.9281   2.9663   3.0458   3.3219
     3.5042   3.8229   3.8495   3.9380   3.9633   4.0104   4.2070   4.6820
     4.6942   4.9205   5.9630   6.0470   6.0610   6.1447   6.4647   6.5536
     6.8552   7.0142

          k =-2.0325 0.0000-0.2971 ( 36460 PWs)   bands (ev):

   -44.1385 -44.1385 -22.2589 -22.2589 -22.1678 -22.1678 -22.0714 -22.0714
    -7.8876  -7.8876  -6.9901  -6.9901  -5.9594  -5.9594  -4.8054  -4.8054
    -4.2099  -4.2099   0.6630   0.6630   1.2440   1.2440   1.3932   1.3932
     2.1777   2.1777   2.6630   2.6630   2.8973   2.8973   3.1013   3.1013
     3.8904   3.8904   3.9232   3.9232   4.0120   4.0120   4.3315   4.3315
     4.6857   4.6857   5.9683   5.9683   6.3086   6.3086   6.4925   6.4925
     6.8027   6.8027

     the Fermi energy is     5.4470 ev

!    total energy              =   -4240.95070611 Ry

     total all-electron energy =   -150287.644401 Ry
     estimated scf accuracy    <          4.6E-12 Ry
     smearing contrib. (-TS)   =       0.00000269 Ry
     internal energy E=F+TS    =   -4240.95070879 Ry

     The total energy is F=E-TS. E is the sum of the following terms:
     one-electron contribution =    -167.65015134 Ry
     hartree contribution      =     117.29391503 Ry
     xc contribution           =    -201.54550738 Ry
     ewald contribution        =    -221.52145300 Ry
     one-center paw contrib.   =   -3767.52751211 Ry

     convergence has been achieved in  18 iterations

     Forces acting on atoms (cartesian axes, Ry/au):

     atom    1 type  1   force =    -0.00000000    0.00769907    0.00000000
     atom    2 type  1   force =     0.00000000   -0.00769907    0.00000000
     atom    3 type  2   force =     0.00000000   -0.00001675    0.00000000
     atom    4 type  2   force =     0.00000000    0.00001675    0.00000000
     atom    5 type  2   force =    -0.00000000   -0.00176364   -0.00074489
     atom    6 type  2   force =     0.00000000    0.00176364    0.00074489
     atom    7 type  2   force =     0.00000000   -0.00176364    0.00074489
     atom    8 type  2   force =     0.00000000    0.00176364   -0.00074489
     atom    9 type  2   force =     0.00000000   -0.01262084   -0.01371949
     atom   10 type  2   force =     0.00000000    0.01262084    0.01371949
     atom   11 type  2   force =    -0.00000000   -0.01262084    0.01371949
     atom   12 type  2   force =     0.00000000    0.01262084   -0.01371949

     Total force =     0.039029     Total SCF correction =     0.000002


     Computing stress (Cartesian axis) and pressure

          total   stress  (Ry/bohr**3)                   (kbar)     P=        3.15
   0.00002048   0.00000000   0.00000000            3.01        0.00        0.00
   0.00000000   0.00001438   0.00000000            0.00        2.12        0.00
   0.00000000   0.00000000   0.00002938            0.00        0.00        4.32

 
     init_run     :     36.60s CPU     38.14s WALL (       1 calls)
     electrons    :   1757.54s CPU   1773.91s WALL (       1 calls)
     forces       :      7.22s CPU      7.47s WALL (       1 calls)
     stress       :     42.53s CPU     43.20s WALL (       1 calls)

     Called by init_run:
     wfcinit      :     31.69s CPU     31.96s WALL (       1 calls)
     potinit      :      1.47s CPU      1.53s WALL (       1 calls)
     hinit0       :      1.75s CPU      2.67s WALL (       1 calls)

     Called by electrons:
     c_bands      :   1421.66s CPU   1428.44s WALL (      19 calls)
     sum_band     :    301.41s CPU    306.73s WALL (      19 calls)
     v_of_rho     :      8.78s CPU      9.42s WALL (      19 calls)
     newd         :     18.29s CPU     22.18s WALL (      19 calls)
     PAW_pot      :      6.89s CPU      6.89s WALL (      19 calls)
     mix_rho      :      1.62s CPU      1.64s WALL (      19 calls)

     Called by c_bands:
     init_us_2    :     14.07s CPU     14.15s WALL (    2583 calls)
     cegterg      :   1340.58s CPU   1347.07s WALL (    1197 calls)

     Called by *egterg:
     cdiaghg      :     28.22s CPU     28.34s WALL (    8117 calls)
     h_psi        :   1162.62s CPU   1168.81s WALL (    8243 calls)
     s_psi        :     52.01s CPU     52.12s WALL (    8243 calls)
     g_psi        :      2.18s CPU      2.19s WALL (    6983 calls)

     Called by h_psi:
     h_psi:calbec :     43.93s CPU     44.01s WALL (    8243 calls)
     vloc_psi     :   1062.96s CPU   1068.88s WALL (    8243 calls)
     add_vuspsi   :     51.79s CPU     51.89s WALL (    8243 calls)

     General routines
     calbec       :     58.11s CPU     58.23s WALL (    9755 calls)
     fft          :      7.94s CPU      8.87s WALL (     271 calls)
     ffts         :      0.21s CPU      0.21s WALL (      38 calls)
     fftw         :   1080.77s CPU   1086.55s WALL (  424980 calls)
     interpolate  :      0.66s CPU      0.66s WALL (      19 calls)
 
     Parallel routines
     fft_scatt_xy :    253.13s CPU    254.67s WALL (  425289 calls)
     fft_scatt_yz :    304.30s CPU    306.00s WALL (  425289 calls)
 
     PWSCF        :  30m45.44s CPU  31m 7.74s WALL

 
   This run was terminated on:  15:17:24  19Nov2021            

=------------------------------------------------------------------------------=
   JOB DONE.
=------------------------------------------------------------------------------=
