
     Program PWSCF v.6.7MaX starts on 19Nov2021 at 14:46:19 

     This program is part of the open-source Quantum ESPRESSO suite
     for quantum simulation of materials; please cite
         "P. Giannozzi et al., J. Phys.:Condens. Matter 21 395502 (2009);
         "P. Giannozzi et al., J. Phys.:Condens. Matter 29 465901 (2017);
          URL http://www.quantum-espresso.org", 
     in publications or presentations arising from this work. More details at
     http://www.quantum-espresso.org/quote

     Parallel version (MPI), running on    10 processors

     MPI processes distributed on     1 nodes
     R & G space division:  proc/nbgrp/npool/nimage =      10
     Waiting for input...
     Reading input from standard input

     Current dimensions of program PWSCF are:
     Max number of different atomic species (ntypx) = 10
     Max number of k-points (npk) =  40000
     Max angular momentum in pseudopotentials (lmaxx) =  3
     file Zr.pbe-spn-kjpaw_psl.1.0.0.UPF: wavefunction(s)  4S 4P renormalized
     file Te.pbe-n-kjpaw_psl.1.0.0.UPF: wavefunction(s)  5S 5P renormalized

     Subspace diagonalization in iterative solution of the eigenvalue problem:
     a serial algorithm will be used

     Message from routine setup:
     using ibrav=0 with symmetry is DISCOURAGED, use correct ibrav instead
 
     Parallelization info
     --------------------
     sticks:   dense  smooth     PW     G-vecs:    dense   smooth      PW
     Min         734     293     87               115340    29174    4753
     Max         735     295     88               115345    29176    4760
     Sum        7345    2937    873              1153415   291749   47557
 


     bravais-lattice index     =            0
     lattice parameter (alat)  =      15.5510  a.u.
     unit-cell volume          =    3018.5011 (a.u.)^3
     number of atoms/cell      =           12
     number of atomic types    =            2
     number of electrons       =        84.00
     number of Kohn-Sham states=           50
     kinetic-energy cutoff     =      80.0000  Ry
     charge density cutoff     =     800.0000  Ry
     scf convergence threshold =      1.0E-10
     mixing beta               =       0.7000
     number of iterations used =            8  plain     mixing
     Exchange-correlation= SLA  PW   PBX  PBC
                           (   1   4   3   4   0   0   0)

     celldm(1)=  15.551040  celldm(2)=   0.000000  celldm(3)=   0.000000
     celldm(4)=   0.000000  celldm(5)=   0.000000  celldm(6)=   0.000000

     crystal axes: (cart. coord. in units of alat)
               a(1) = (   0.246007  -0.969268   0.000000 )  
               a(2) = (   0.246007   0.969268   0.000000 )  
               a(3) = (   0.000000   0.000000   1.683031 )  

     reciprocal axes: (cart. coord. in units 2 pi/alat)
               b(1) = (  2.032465 -0.515853  0.000000 )  
               b(2) = (  2.032465  0.515853  0.000000 )  
               b(3) = (  0.000000  0.000000  0.594166 )  


     PseudoPot. # 1 for Zr read from file:
     pseudo/Zr.pbe-spn-kjpaw_psl.1.0.0.UPF
     MD5 check sum: 02112c41713a0468aff2bb39ef194e36
     Pseudo is Projector augmented-wave + core cor, Zval = 12.0
     Generated using &quot;atomic&quot; code by A. Dal Corso  v.6.2.2
     Shape of augmentation charge: PSQ
     Using radial grid of 1225 points,  6 beta functions with: 
                l(1) =   0
                l(2) =   0
                l(3) =   1
                l(4) =   1
                l(5) =   2
                l(6) =   2
     Q(r) pseudized with 0 coefficients 


     PseudoPot. # 2 for Te read from file:
     pseudo/Te.pbe-n-kjpaw_psl.1.0.0.UPF
     MD5 check sum: 66247bff2bd9dbf220fbb0bf5ab56e9d
     Pseudo is Projector augmented-wave + core cor, Zval =  6.0
     Generated using &quot;atomic&quot; code by A. Dal Corso  v.6.3
     Shape of augmentation charge: PSQ
     Using radial grid of 1245 points,  6 beta functions with: 
                l(1) =   0
                l(2) =   0
                l(3) =   1
                l(4) =   1
                l(5) =   2
                l(6) =   2
     Q(r) pseudized with 0 coefficients 


     atomic species   valence    mass     pseudopotential
        Zr            12.00    91.22000     Zr( 1.00)
        Te             6.00   127.60000     Te( 1.00)

      8 Sym. Ops., with inversion, found ( 4 have fractional translation)



   Cartesian axes

     site n.     atom                  positions (alat units)
         1           Zr  tau(   1) = (   0.0000000   0.6018020   0.4207578  )
         2           Zr  tau(   2) = (   0.2460067   0.3674661   1.2622733  )
         3           Te  tau(   3) = (   0.2460067   0.3341719   0.4207578  )
         4           Te  tau(   4) = (   0.0000000   0.6350962   1.2622733  )
         5           Te  tau(   5) = (   0.2460067   0.8115580   0.2532458  )
         6           Te  tau(   6) = (   0.0000000   0.1577101   1.4297853  )
         7           Te  tau(   7) = (   0.2460067   0.8115580   0.5882697  )
         8           Te  tau(   8) = (   0.0000000   0.1577101   1.0947613  )
         9           Te  tau(   9) = (   0.0000000   0.4215585   0.7372428  )
        10           Te  tau(  10) = (   0.2460067   0.5477097   0.9457882  )
        11           Te  tau(  11) = (   0.0000000   0.4215585   0.1042727  )
        12           Te  tau(  12) = (   0.2460067   0.5477097   1.5787584  )

     number of k points=    63  Methfessel-Paxton smearing, width (Ry)=  0.0030
                       cart. coord. in units 2pi/alat
        k(    1) = (   0.0000000   0.0000000   0.0000000), wk =   0.0078125
        k(    2) = (   0.0000000   0.0000000   0.1485415), wk =   0.0156250
        k(    3) = (   0.0000000   0.0000000  -0.2970830), wk =   0.0078125
        k(    4) = (   0.2540581   0.0644816   0.0000000), wk =   0.0312500
        k(    5) = (   0.2540581   0.0644816   0.1485415), wk =   0.0625000
        k(    6) = (   0.2540581   0.0644816  -0.2970830), wk =   0.0312500
        k(    7) = (   0.5081162   0.1289633   0.0000000), wk =   0.0312500
        k(    8) = (   0.5081162   0.1289633   0.1485415), wk =   0.0625000
        k(    9) = (   0.5081162   0.1289633  -0.2970830), wk =   0.0312500
        k(   10) = (   0.7621743   0.1934449   0.0000000), wk =   0.0312500
        k(   11) = (   0.7621743   0.1934449   0.1485415), wk =   0.0625000
        k(   12) = (   0.7621743   0.1934449  -0.2970830), wk =   0.0312500
        k(   13) = (  -1.0162324  -0.2579266   0.0000000), wk =   0.0156250
        k(   14) = (  -1.0162324  -0.2579266   0.1485415), wk =   0.0312500
        k(   15) = (  -1.0162324  -0.2579266  -0.2970830), wk =   0.0156250
        k(   16) = (   0.5081162   0.0000000   0.0000000), wk =   0.0156250
        k(   17) = (   0.5081162   0.0000000   0.1485415), wk =   0.0312500
        k(   18) = (   0.5081162   0.0000000  -0.2970830), wk =   0.0156250
        k(   19) = (   0.7621743   0.0644816   0.0000000), wk =   0.0312500
        k(   20) = (   0.7621743   0.0644816   0.1485415), wk =   0.0625000
        k(   21) = (   0.7621743   0.0644816  -0.2970830), wk =   0.0312500
        k(   22) = (   1.0162324   0.1289633   0.0000000), wk =   0.0312500
        k(   23) = (   1.0162324   0.1289633   0.1485415), wk =   0.0625000
        k(   24) = (   1.0162324   0.1289633  -0.2970830), wk =   0.0312500
        k(   25) = (  -0.7621743  -0.3224082   0.0000000), wk =   0.0312500
        k(   26) = (  -0.7621743  -0.3224082   0.1485415), wk =   0.0625000
        k(   27) = (  -0.7621743  -0.3224082  -0.2970830), wk =   0.0312500
        k(   28) = (  -0.5081162  -0.2579266   0.0000000), wk =   0.0312500
        k(   29) = (  -0.5081162  -0.2579266   0.1485415), wk =   0.0625000
        k(   30) = (  -0.5081162  -0.2579266  -0.2970830), wk =   0.0312500
        k(   31) = (  -0.2540581  -0.1934449   0.0000000), wk =   0.0312500
        k(   32) = (  -0.2540581  -0.1934449   0.1485415), wk =   0.0625000
        k(   33) = (  -0.2540581  -0.1934449  -0.2970830), wk =   0.0312500
        k(   34) = (   0.0000000  -0.1289633   0.0000000), wk =   0.0156250
        k(   35) = (   0.0000000  -0.1289633   0.1485415), wk =   0.0312500
        k(   36) = (   0.0000000  -0.1289633  -0.2970830), wk =   0.0156250
        k(   37) = (   1.0162324   0.0000000   0.0000000), wk =   0.0156250
        k(   38) = (   1.0162324   0.0000000   0.1485415), wk =   0.0312500
        k(   39) = (   1.0162324   0.0000000  -0.2970830), wk =   0.0156250
        k(   40) = (   1.2702905   0.0644816   0.0000000), wk =   0.0312500
        k(   41) = (   1.2702905   0.0644816   0.1485415), wk =   0.0625000
        k(   42) = (   1.2702905   0.0644816  -0.2970830), wk =   0.0312500
        k(   43) = (  -0.5081162  -0.3868899   0.0000000), wk =   0.0312500
        k(   44) = (  -0.5081162  -0.3868899   0.1485415), wk =   0.0625000
        k(   45) = (  -0.5081162  -0.3868899  -0.2970830), wk =   0.0312500
        k(   46) = (  -0.2540581  -0.3224082   0.0000000), wk =   0.0312500
        k(   47) = (  -0.2540581  -0.3224082   0.1485415), wk =   0.0625000
        k(   48) = (  -0.2540581  -0.3224082  -0.2970830), wk =   0.0312500
        k(   49) = (   0.0000000  -0.2579266   0.0000000), wk =   0.0156250
        k(   50) = (   0.0000000  -0.2579266   0.1485415), wk =   0.0312500
        k(   51) = (   0.0000000  -0.2579266  -0.2970830), wk =   0.0156250
        k(   52) = (   1.5243485   0.0000000   0.0000000), wk =   0.0156250
        k(   53) = (   1.5243485   0.0000000   0.1485415), wk =   0.0312500
        k(   54) = (   1.5243485   0.0000000  -0.2970830), wk =   0.0156250
        k(   55) = (  -0.2540581  -0.4513715   0.0000000), wk =   0.0312500
        k(   56) = (  -0.2540581  -0.4513715   0.1485415), wk =   0.0625000
        k(   57) = (  -0.2540581  -0.4513715  -0.2970830), wk =   0.0312500
        k(   58) = (   0.0000000  -0.3868899   0.0000000), wk =   0.0156250
        k(   59) = (   0.0000000  -0.3868899   0.1485415), wk =   0.0312500
        k(   60) = (   0.0000000  -0.3868899  -0.2970830), wk =   0.0156250
        k(   61) = (  -2.0324647   0.0000000   0.0000000), wk =   0.0078125
        k(   62) = (  -2.0324647   0.0000000   0.1485415), wk =   0.0156250
        k(   63) = (  -2.0324647   0.0000000  -0.2970830), wk =   0.0078125

     Dense  grid:  1153415 G-vectors     FFT dimensions: ( 144, 144, 240)

     Smooth grid:   291749 G-vectors     FFT dimensions: (  90,  90, 150)

     Estimated max dynamical RAM per process >     657.19 MB

     Estimated total dynamical RAM >       6.42 GB

     Initial potential from superposition of free atoms

     starting charge   83.99353, renormalised to   84.00000
     Starting wfcs are   66 randomized atomic wfcs
     Checking if some PAW data can be deallocated... 

     total cpu time spent up to now is       42.3 secs

     Self-consistent Calculation

     iteration #  1     ecut=    80.00 Ry     beta= 0.70
     Davidson diagonalization with overlap
     ethr =  1.00E-02,  avg # of iterations =  2.1

     Threshold (ethr) on eigenvalues was too large:
     Diagonalizing with lowered threshold

     Davidson diagonalization with overlap
     ethr =  4.50E-04,  avg # of iterations =  4.0

     total cpu time spent up to now is      201.4 secs

     total energy              =   -4240.71626641 Ry
     estimated scf accuracy    <       0.44621511 Ry

     iteration #  2     ecut=    80.00 Ry     beta= 0.70
     Davidson diagonalization with overlap
     ethr =  5.31E-04,  avg # of iterations =  8.0

     total cpu time spent up to now is      313.4 secs

     total energy              =   -4240.62019589 Ry
     estimated scf accuracy    <       2.03042965 Ry

     iteration #  3     ecut=    80.00 Ry     beta= 0.70
     Davidson diagonalization with overlap
     ethr =  5.31E-04,  avg # of iterations =  5.4

     total cpu time spent up to now is      406.5 secs

     total energy              =   -4240.93115070 Ry
     estimated scf accuracy    <       0.00803981 Ry

     iteration #  4     ecut=    80.00 Ry     beta= 0.70
     Davidson diagonalization with overlap
     c_bands:  1 eigenvalues not converged
     c_bands:  1 eigenvalues not converged
     c_bands:  2 eigenvalues not converged
     c_bands:  1 eigenvalues not converged
     c_bands:  2 eigenvalues not converged
     c_bands:  2 eigenvalues not converged
     c_bands:  2 eigenvalues not converged
     c_bands:  1 eigenvalues not converged
     c_bands:  3 eigenvalues not converged
     c_bands:  1 eigenvalues not converged
     c_bands:  1 eigenvalues not converged
     c_bands:  1 eigenvalues not converged
     c_bands:  1 eigenvalues not converged
     c_bands:  4 eigenvalues not converged
     c_bands:  4 eigenvalues not converged
     c_bands:  1 eigenvalues not converged
     c_bands:  1 eigenvalues not converged
     c_bands:  1 eigenvalues not converged
     c_bands:  1 eigenvalues not converged
     ethr =  9.57E-06,  avg # of iterations = 17.3

     total cpu time spent up to now is      581.1 secs

     total energy              =   -4240.94103104 Ry
     estimated scf accuracy    <       0.04056195 Ry

     iteration #  5     ecut=    80.00 Ry     beta= 0.70
     Davidson diagonalization with overlap
     ethr =  9.57E-06,  avg # of iterations =  6.9

     total cpu time spent up to now is      673.2 secs

     total energy              =   -4240.94286400 Ry
     estimated scf accuracy    <       0.00682285 Ry

     iteration #  6     ecut=    80.00 Ry     beta= 0.70
     Davidson diagonalization with overlap
     ethr =  8.12E-06,  avg # of iterations =  3.6

     total cpu time spent up to now is      749.9 secs

     total energy              =   -4240.94349517 Ry
     estimated scf accuracy    <       0.00087926 Ry

     iteration #  7     ecut=    80.00 Ry     beta= 0.70
     Davidson diagonalization with overlap
     ethr =  1.05E-06,  avg # of iterations = 10.0

     total cpu time spent up to now is      867.4 secs

     total energy              =   -4240.94392665 Ry
     estimated scf accuracy    <       0.00099124 Ry

     iteration #  8     ecut=    80.00 Ry     beta= 0.70
     Davidson diagonalization with overlap
     ethr =  1.05E-06,  avg # of iterations =  2.2

     total cpu time spent up to now is      937.2 secs

     total energy              =   -4240.94396230 Ry
     estimated scf accuracy    <       0.00013227 Ry

     iteration #  9     ecut=    80.00 Ry     beta= 0.70
     Davidson diagonalization with overlap
     ethr =  1.57E-07,  avg # of iterations =  6.3

     total cpu time spent up to now is     1028.6 secs

     total energy              =   -4240.94400815 Ry
     estimated scf accuracy    <       0.00002609 Ry

     iteration # 10     ecut=    80.00 Ry     beta= 0.70
     Davidson diagonalization with overlap
     ethr =  3.11E-08,  avg # of iterations =  2.4

     total cpu time spent up to now is     1099.5 secs

     total energy              =   -4240.94401035 Ry
     estimated scf accuracy    <       0.00000286 Ry

     iteration # 11     ecut=    80.00 Ry     beta= 0.70
     Davidson diagonalization with overlap
     ethr =  3.40E-09,  avg # of iterations =  6.6

     total cpu time spent up to now is     1198.4 secs

     total energy              =   -4240.94401212 Ry
     estimated scf accuracy    <       0.00000128 Ry

     iteration # 12     ecut=    80.00 Ry     beta= 0.70
     Davidson diagonalization with overlap
     ethr =  1.52E-09,  avg # of iterations =  1.7

     total cpu time spent up to now is     1265.9 secs

     total energy              =   -4240.94401212 Ry
     estimated scf accuracy    <       0.00000026 Ry

     iteration # 13     ecut=    80.00 Ry     beta= 0.70
     Davidson diagonalization with overlap
     ethr =  3.13E-10,  avg # of iterations =  6.0

     total cpu time spent up to now is     1357.5 secs

     total energy              =   -4240.94401222 Ry
     estimated scf accuracy    <       0.00000004 Ry

     iteration # 14     ecut=    80.00 Ry     beta= 0.70
     Davidson diagonalization with overlap
     ethr =  4.82E-11,  avg # of iterations =  2.6

     total cpu time spent up to now is     1428.7 secs

     total energy              =   -4240.94401222 Ry
     estimated scf accuracy    <       0.00000002 Ry

     iteration # 15     ecut=    80.00 Ry     beta= 0.70
     Davidson diagonalization with overlap
     ethr =  2.07E-11,  avg # of iterations =  5.3

     total cpu time spent up to now is     1510.7 secs

     total energy              =   -4240.94401222 Ry
     estimated scf accuracy    <          1.6E-10 Ry

     iteration # 16     ecut=    80.00 Ry     beta= 0.70
     Davidson diagonalization with overlap
     ethr =  1.93E-13,  avg # of iterations = 10.4

     total cpu time spent up to now is     1640.6 secs

     total energy              =   -4240.94401222 Ry
     estimated scf accuracy    <          9.2E-10 Ry

     iteration # 17     ecut=    80.00 Ry     beta= 0.70
     Davidson diagonalization with overlap
     ethr =  1.93E-13,  avg # of iterations =  3.2

     total cpu time spent up to now is     1717.5 secs

     total energy              =   -4240.94401222 Ry
     estimated scf accuracy    <          2.7E-10 Ry

     iteration # 18     ecut=    80.00 Ry     beta= 0.70
     Davidson diagonalization with overlap
     ethr =  1.93E-13,  avg # of iterations =  4.9

     total cpu time spent up to now is     1795.5 secs

     End of self-consistent calculation

          k = 0.0000 0.0000 0.0000 ( 36359 PWs)   bands (ev):

   -44.1436 -44.1436 -22.2601 -22.2601 -22.1702 -22.1702 -22.0785 -22.0784
    -8.1374  -7.9090  -7.1298  -6.9404  -6.1380  -5.4101  -4.7998  -4.7586
    -4.7503  -3.7861   0.2491   0.7786   0.8191   1.1525   1.3241   1.5360
     1.9496   2.0928   2.2725   2.7959   2.9175   2.9906   3.2886   3.3537
     3.8163   3.9133   4.0678   4.0933   4.3354   4.3405   4.4390   4.7213
     4.7236   5.3556   5.6332   5.8846   5.8904   5.9540   6.0110   6.7557
     7.0691   7.2828

          k = 0.0000 0.0000 0.1485 ( 36415 PWs)   bands (ev):

   -44.1436 -44.1436 -22.2601 -22.2601 -22.1702 -22.1702 -22.0785 -22.0784
    -8.1109  -7.9523  -7.0889  -6.9587  -6.0725  -5.6010  -4.7914  -4.7574
    -4.5404  -3.8963   0.3255   0.8451   0.9198   0.9465   1.1091   1.8651
     1.9671   2.0148   2.0674   2.8191   2.9039   3.0518   3.3927   3.4519
     3.7781   3.9641   4.0384   4.1055   4.2616   4.3743   4.4478   4.7101
     4.7180   4.8921   5.8434   5.8782   5.8854   6.1625   6.3331   6.6029
     6.8809   7.1302

          k = 0.0000 0.0000-0.2971 ( 36410 PWs)   bands (ev):

   -44.1436 -44.1436 -22.2601 -22.2601 -22.1702 -22.1702 -22.0785 -22.0785
    -8.0394  -8.0394  -7.0132  -7.0132  -5.8806  -5.8806  -4.7744  -4.7744
    -4.1824  -4.1824   0.5548   0.5548   0.9677   0.9677   1.3440   1.3440
     2.0135   2.0135   2.5719   2.5719   2.8661   2.8661   3.5882   3.5882
     3.9266   3.9266   4.1008   4.1008   4.3121   4.3121   4.4295   4.4295
     4.7080   4.7080   5.8773   5.8773   6.2223   6.2223   6.5096   6.5096
     6.8132   6.8132

          k = 0.2541 0.0645 0.0000 ( 36396 PWs)   bands (ev):

   -44.1432 -44.1432 -22.2582 -22.2582 -22.1797 -22.1797 -22.0774 -22.0773
    -8.0135  -7.7878  -7.0642  -6.8913  -6.0784  -5.3622  -4.8043  -4.7539
    -4.7048  -3.9610   0.3308   0.8931   0.9441   0.9962   1.2602   1.4948
     1.5588   1.6367   1.7868   2.5889   2.6183   3.2219   3.2668   3.7054
     3.7799   3.7812   3.8729   3.8884   4.0673   4.2604   4.3339   4.4014
     4.4650   4.5852   5.9099   5.9801   6.1713   6.5085   6.5497   6.6679
     7.0394   7.2218

          k = 0.2541 0.0645 0.1485 ( 36423 PWs)   bands (ev):

   -44.1432 -44.1432 -22.2582 -22.2582 -22.1797 -22.1797 -22.0774 -22.0773
    -7.9873  -7.8307  -7.0266  -6.9080  -6.0125  -5.5491  -4.7569  -4.7138
    -4.5915  -4.0479   0.3961   0.8396   0.9170   0.9850   1.2098   1.2355
     1.7156   1.7252   2.1063   2.5880   2.6001   2.9516   3.4042   3.4165
     3.5241   3.8365   3.9614   4.0164   4.0577   4.2048   4.3920   4.4179
     4.6893   4.7439   5.8785   5.9999   6.1297   6.2369   6.3238   6.7937
     7.2112   7.2544

          k = 0.2541 0.0645-0.2971 ( 36436 PWs)   bands (ev):

   -44.1432 -44.1432 -22.2582 -22.2582 -22.1797 -22.1797 -22.0774 -22.0774
    -7.9168  -7.9168  -6.9575  -6.9575  -5.8221  -5.8221  -4.7349  -4.7349
    -4.2824  -4.2824   0.5835   0.5835   1.0021   1.0021   1.1120   1.1120
     1.8266   1.8266   2.4874   2.4874   2.6524   2.6524   3.2597   3.2597
     3.6709   3.6709   3.9964   3.9964   4.1590   4.1590   4.4162   4.4162
     4.9403   4.9403   5.7946   5.7946   6.1457   6.1457   6.4640   6.4640
     7.3681   7.3681

          k = 0.5081 0.1290 0.0000 ( 36499 PWs)   bands (ev):

   -44.1424 -44.1424 -22.2535 -22.2535 -22.2028 -22.2028 -22.0748 -22.0747
    -7.6521  -7.4324  -6.9077  -6.7687  -5.9054  -5.2451  -5.0078  -4.6402
    -4.5931  -4.4748   0.1105   0.4987   0.6841   1.0617   1.1664   1.3028
     1.6326   1.7106   1.8194   2.0847   2.1476   2.3704   2.5393   3.4210
     3.4941   3.5401   3.5728   3.6465   3.7685   3.8536   3.9830   4.2143
     4.3252   4.9025   5.7856   6.1428   6.2482   6.6066   6.6378   7.0312
     7.4429   7.5556

          k = 0.5081 0.1290 0.1485 ( 36476 PWs)   bands (ev):

   -44.1424 -44.1424 -22.2535 -22.2535 -22.2028 -22.2028 -22.0747 -22.0747
    -7.6270  -7.4752  -6.8766  -6.7821  -5.8422  -5.4256  -4.8629  -4.6273
    -4.6129  -4.4936   0.1597   0.4809   0.7712   0.8927   1.1854   1.2796
     1.4021   1.5765   2.0059   2.0921   2.3325   2.4760   2.8502   3.3839
     3.4487   3.5012   3.5217   3.6660   3.7510   3.7796   3.8675   4.2508
     4.2981   4.4713   6.2227   6.2636   6.4143   6.6065   6.6909   6.9006
     7.2935   7.5251

          k = 0.5081 0.1290-0.2971 ( 36466 PWs)   bands (ev):

   -44.1424 -44.1424 -22.2535 -22.2535 -22.2028 -22.2028 -22.0747 -22.0747
    -7.5591  -7.5591  -6.8214  -6.8214  -5.6671  -5.6671  -4.7130  -4.7130
    -4.5512  -4.5512   0.3126   0.3126   0.9776   0.9776   0.9999   0.9999
     1.4546   1.4546   2.0551   2.0551   2.6662   2.6662   3.1829   3.1829
     3.3927   3.3927   3.5762   3.5762   3.7478   3.7478   3.8914   3.8914
     4.3316   4.3316   6.4596   6.4596   6.5698   6.5698   6.8787   6.8787
     7.2186   7.2186

          k = 0.7622 0.1934 0.0000 ( 36521 PWs)   bands (ev):

   -44.1415 -44.1415 -22.2487 -22.2487 -22.2257 -22.2257 -22.0721 -22.0720
    -7.1072  -6.8724  -6.7613  -6.6127  -5.7281  -5.4892  -5.1550  -5.1438
    -4.5137  -4.4760  -0.1651   0.0215   0.2817   0.9391   0.9400   1.2931
     1.4873   1.5992   2.0068   2.1916   2.2295   2.2472   2.4448   2.8072
     2.9693   3.2517   3.3557   3.4859   3.5037   3.6683   3.7411   3.7539
     3.8461   4.5794   6.1051   6.4325   6.5179   6.9206   6.9453   7.0065
     7.3758   7.6366

          k = 0.7622 0.1934 0.1485 ( 36503 PWs)   bands (ev):

   -44.1415 -44.1415 -22.2487 -22.2487 -22.2257 -22.2257 -22.0721 -22.0720
    -7.0843  -6.9330  -6.7151  -6.6246  -5.6899  -5.5194  -5.1594  -5.1493
    -4.5060  -4.4798  -0.1349   0.1503   0.1827   0.8093   0.9576   1.2447
     1.4973   1.6037   1.9957   2.0373   2.1331   2.5872   2.6987   2.8915
     2.9321   3.0425   3.2722   3.3655   3.5136   3.6088   3.7277   3.9306
     3.9831   4.4689   5.9310   6.4218   6.7274   6.8650   7.0267   7.0465
     7.1631   7.6519

          k = 0.7622 0.1934-0.2971 ( 36522 PWs)   bands (ev):

   -44.1415 -44.1415 -22.2487 -22.2487 -22.2257 -22.2257 -22.0721 -22.0721
    -7.0206  -7.0206  -6.6596  -6.6596  -5.6010  -5.6010  -5.1590  -5.1590
    -4.4911  -4.4911  -0.0083  -0.0083   0.4670   0.4670   1.0805   1.0805
     1.5578   1.5578   2.0019   2.0019   2.4240   2.4240   2.8407   2.8407
     2.9681   2.9681   3.2785   3.2785   3.5968   3.5968   3.9504   3.9504
     4.0637   4.0637   6.3240   6.3240   6.5121   6.5121   7.0512   7.0512
     7.5369   7.5369

          k =-1.0162-0.2579 0.0000 ( 36506 PWs)   bands (ev):

   -44.1411 -44.1411 -22.2467 -22.2467 -22.2352 -22.2352 -22.0710 -22.0710
    -6.7494  -6.7286  -6.2054  -6.1939  -6.1796  -6.1747  -5.2150  -5.2144
    -4.4558  -4.4269  -0.1157  -0.0960   0.1922   0.2138   1.0111   1.0191
     1.4669   1.6614   2.2176   2.3809   2.4016   2.4269   2.8020   2.8255
     2.8279   2.8558   3.1844   3.2427   3.3080   3.3654   3.4414   3.6343
     3.9242   4.1917   6.6536   6.7251   6.7408   6.7598   7.1022   7.1978
     7.1999   7.2628

          k =-1.0162-0.2579 0.1485 ( 36506 PWs)   bands (ev):

   -44.1411 -44.1411 -22.2467 -22.2467 -22.2352 -22.2352 -22.0710 -22.0710
    -6.7448  -6.7300  -6.2356  -6.2281  -6.1486  -6.1443  -5.2132  -5.2128
    -4.4540  -4.4336  -0.2100  -0.2039   0.3880   0.3959   1.0063   1.0173
     1.4601   1.5917   2.0580   2.1828   2.3495   2.3946   2.6569   2.6711
     2.9287   3.0394   3.0928   3.2041   3.5361   3.5583   3.5885   3.7175
     4.0716   4.2199   6.2162   6.2372   6.5619   6.6390   7.2073   7.2168
     7.4190   7.4876

          k =-1.0162-0.2579-0.2971 ( 36528 PWs)   bands (ev):

   -44.1411 -44.1411 -22.2467 -22.2467 -22.2352 -22.2352 -22.0710 -22.0710
    -6.7357  -6.7357  -6.2492  -6.2492  -6.1304  -6.1304  -5.2113  -5.2113
    -4.4463  -4.4463  -0.2687  -0.2687   0.5788   0.5788   0.9735   0.9735
     1.5073   1.5073   1.9062   1.9062   2.3533   2.3533   2.7608   2.7608
     2.8355   2.8355   3.1884   3.1884   3.6336   3.6336   3.7901   3.7901
     4.3128   4.3128   5.8447   5.8447   6.5061   6.5061   7.2268   7.2268
     7.5516   7.5516

          k = 0.5081 0.0000 0.0000 ( 36503 PWs)   bands (ev):

   -44.1424 -44.1424 -22.2535 -22.2535 -22.2028 -22.2028 -22.0748 -22.0747
    -7.6544  -7.4329  -6.9081  -6.7670  -5.9023  -5.2446  -5.0053  -4.6337
    -4.6008  -4.4743   0.1152   0.4933   0.6828   1.0821   1.1624   1.2522
     1.6269   1.7019   1.8061   2.0917   2.1443   2.3564   2.5415   3.4135
     3.5255   3.5551   3.5908   3.6187   3.7798   3.9061   3.9644   4.2518
     4.3279   4.8944   5.7917   6.1187   6.2821   6.5697   6.5856   7.0685
     7.4499   7.5781

          k = 0.5081 0.0000 0.1485 ( 36453 PWs)   bands (ev):

   -44.1423 -44.1423 -22.2535 -22.2535 -22.2028 -22.2028 -22.0747 -22.0747
    -7.6292  -7.4761  -6.8763  -6.7804  -5.8397  -5.4249  -4.8593  -4.6281
    -4.6122  -4.4953   0.1629   0.4744   0.7731   0.8985   1.2025   1.2533
     1.3677   1.5540   2.0048   2.1056   2.3268   2.4571   2.8499   3.4007
     3.4685   3.4820   3.5332   3.6804   3.7382   3.8420   3.8445   4.3006
     4.3016   4.4563   6.2106   6.2745   6.4333   6.5617   6.6530   6.9341
     7.3086   7.5395

          k = 0.5081 0.0000-0.2971 ( 36452 PWs)   bands (ev):

   -44.1423 -44.1423 -22.2535 -22.2535 -22.2028 -22.2028 -22.0747 -22.0747
    -7.5608  -7.5608  -6.8200  -6.8200  -5.6657  -5.6657  -4.7094  -4.7094
    -4.5538  -4.5538   0.3119   0.3119   0.9784   0.9784   1.0036   1.0036
     1.4198   1.4198   2.0590   2.0590   2.6561   2.6561   3.1837   3.1837
     3.4008   3.4008   3.5814   3.5814   3.7784   3.7784   3.8820   3.8820
     4.3498   4.3498   6.4744   6.4744   6.5338   6.5338   6.8970   6.8970
     7.2195   7.2195

          k = 0.7622 0.0645 0.0000 ( 36505 PWs)   bands (ev):

   -44.1415 -44.1415 -22.2487 -22.2487 -22.2257 -22.2257 -22.0721 -22.0720
    -7.1131  -6.8734  -6.7586  -6.6081  -5.7284  -5.4869  -5.1552  -5.1429
    -4.5028  -4.4876  -0.1562   0.0189   0.2916   0.9299   0.9698   1.3064
     1.4551   1.5619   1.9700   2.2104   2.2312   2.2639   2.3821   2.7830
     2.9593   3.2970   3.3677   3.4905   3.5675   3.6686   3.6990   3.7621
     3.8353   4.6040   6.1024   6.4055   6.5383   6.9181   6.9663   6.9769
     7.3853   7.6702

          k = 0.7622 0.0645 0.1485 ( 36509 PWs)   bands (ev):

   -44.1415 -44.1415 -22.2487 -22.2487 -22.2257 -22.2257 -22.0721 -22.0720
    -7.0899  -6.9356  -6.7111  -6.6198  -5.6903  -5.5181  -5.1591  -5.1484
    -4.4984  -4.4880  -0.1264   0.1495   0.1887   0.7988   0.9852   1.2582
     1.4680   1.6007   1.9759   2.0029   2.0930   2.5904   2.6981   2.8822
     2.9166   3.0475   3.3145   3.3698   3.5590   3.5989   3.6967   3.9662
     3.9786   4.4625   5.9553   6.3986   6.7439   6.8661   6.9989   7.0883
     7.1352   7.6754

          k = 0.7622 0.0645-0.2971 ( 36472 PWs)   bands (ev):

   -44.1415 -44.1415 -22.2487 -22.2487 -22.2257 -22.2257 -22.0721 -22.0721
    -7.0251  -7.0251  -6.6547  -6.6547  -5.6011  -5.6011  -5.1580  -5.1580
    -4.4913  -4.4913   0.0000   0.0000   0.4600   0.4600   1.1004   1.1004
     1.5526   1.5526   1.9487   1.9487   2.4171   2.4171   2.8451   2.8451
     2.9477   2.9477   3.3301   3.3301   3.5937   3.5937   3.9524   3.9524
     4.0589   4.0589   6.3511   6.3511   6.5112   6.5112   7.0210   7.0210
     7.5642   7.5642

          k = 1.0162 0.1290 0.0000 ( 36514 PWs)   bands (ev):

   -44.1411 -44.1411 -22.2467 -22.2467 -22.2352 -22.2352 -22.0710 -22.0710
    -6.7494  -6.7286  -6.2053  -6.1941  -6.1796  -6.1747  -5.2150  -5.2144
    -4.4558  -4.4269  -0.1214  -0.0902   0.1893   0.2168   1.0032   1.0279
     1.4737   1.6514   2.2140   2.3864   2.4048   2.4206   2.7741   2.8273
     2.8499   2.8750   3.2048   3.2121   3.2935   3.3514   3.4874   3.6175
     3.9076   4.2080   6.6478   6.7250   6.7339   6.7757   7.1264   7.1980
     7.2020   7.2428

          k = 1.0162 0.1290 0.1485 ( 36524 PWs)   bands (ev):

   -44.1411 -44.1411 -22.2467 -22.2467 -22.2352 -22.2352 -22.0710 -22.0710
    -6.7448  -6.7300  -6.2355  -6.2282  -6.1485  -6.1443  -5.2132  -5.2128
    -4.4540  -4.4336  -0.2123  -0.2019   0.3893   0.3952   1.0053   1.0184
     1.4663   1.5853   2.0675   2.1657   2.3523   2.3933   2.6307   2.7037
     2.9286   3.0508   3.0921   3.1947   3.5158   3.5519   3.6246   3.7098
     4.0501   4.2393   6.2112   6.2472   6.5584   6.6414   7.2101   7.2166
     7.4296   7.4784

          k = 1.0162 0.1290-0.2971 ( 36516 PWs)   bands (ev):

   -44.1411 -44.1411 -22.2467 -22.2467 -22.2352 -22.2352 -22.0710 -22.0710
    -6.7357  -6.7357  -6.2492  -6.2492  -6.1304  -6.1304  -5.2113  -5.2113
    -4.4462  -4.4462  -0.2688  -0.2688   0.5791   0.5791   0.9733   0.9733
     1.5085   1.5085   1.9069   1.9069   2.3467   2.3467   2.7412   2.7412
     2.8692   2.8692   3.1777   3.1777   3.6354   3.6354   3.7891   3.7891
     4.3134   4.3134   5.8475   5.8475   6.5053   6.5053   7.2277   7.2277
     7.5527   7.5528

          k =-0.7622-0.3224 0.0000 ( 36511 PWs)   bands (ev):

   -44.1415 -44.1415 -22.2487 -22.2487 -22.2257 -22.2257 -22.0721 -22.0720
    -7.0984  -6.8710  -6.7657  -6.6187  -5.7276  -5.4924  -5.1544  -5.1452
    -4.5220  -4.4666  -0.1775   0.0254   0.2674   0.9052   0.9542   1.2767
     1.5035   1.6661   2.0827   2.1707   2.2180   2.2657   2.4625   2.8440
     2.9794   3.2144   3.3423   3.4811   3.4848   3.6258   3.6816   3.7230
     3.9623   4.5365   6.1089   6.4534   6.5199   6.8392   6.9864   7.0736
     7.3508   7.5894

          k =-0.7622-0.3224 0.1485 ( 36492 PWs)   bands (ev):

   -44.1415 -44.1415 -22.2487 -22.2487 -22.2257 -22.2257 -22.0721 -22.0720
    -7.0760  -6.9293  -6.7213  -6.6312  -5.6892  -5.5211  -5.1597  -5.1508
    -4.5118  -4.4732  -0.1467   0.1524   0.1735   0.8235   0.9263   1.2262
     1.5261   1.6153   1.9945   2.1279   2.1862   2.5851   2.6764   2.9131
     2.9397   3.0614   3.2307   3.3413   3.4748   3.5871   3.7560   3.8790
     4.0091   4.4761   5.8989   6.4588   6.6960   6.8611   7.0034   7.0855
     7.1886   7.6006

          k =-0.7622-0.3224-0.2971 ( 36508 PWs)   bands (ev):

   -44.1415 -44.1415 -22.2487 -22.2487 -22.2257 -22.2257 -22.0721 -22.0721
    -7.0141  -7.0141  -6.6669  -6.6669  -5.6008  -5.6008  -5.1603  -5.1603
    -4.4909  -4.4909  -0.0197  -0.0197   0.4764   0.4764   1.0567   1.0567
     1.5659   1.5659   2.0663   2.0663   2.4474   2.4474   2.8357   2.8357
     2.9972   2.9972   3.2064   3.2064   3.5941   3.5941   3.9188   3.9188
     4.0979   4.0979   6.2898   6.2898   6.5113   6.5113   7.0995   7.0995
     7.4867   7.4867

          k =-0.5081-0.2579 0.0000 ( 36480 PWs)   bands (ev):

   -44.1424 -44.1423 -22.2535 -22.2535 -22.2028 -22.2028 -22.0748 -22.0747
    -7.6463  -7.4314  -6.9072  -6.7723  -5.9130  -5.2462  -5.0139  -4.6497
    -4.5806  -4.4760   0.0994   0.5114   0.6848   1.0353   1.1762   1.4128
     1.6424   1.7408   1.8526   2.0726   2.1460   2.3995   2.5318   3.3937
     3.4419   3.5369   3.5529   3.6839   3.7087   3.7648   4.0239   4.1280
     4.3154   4.9197   5.7732   6.1560   6.2138   6.7017   6.7620   6.9439
     7.4179   7.5053

          k =-0.5081-0.2579 0.1485 ( 36485 PWs)   bands (ev):

   -44.1424 -44.1424 -22.2535 -22.2535 -22.2028 -22.2028 -22.0747 -22.0747
    -7.6216  -7.4728  -6.8779  -6.7858  -5.8483  -5.4272  -4.8714  -4.6251
    -4.6148  -4.4897   0.1520   0.4961   0.7665   0.8783   1.1735   1.3105
     1.4963   1.6395   1.9975   2.0686   2.3462   2.5135   2.8499   3.3134
     3.4503   3.5045   3.5099   3.6415   3.6569   3.7705   3.9071   4.1659
     4.2641   4.4975   6.2262   6.2577   6.3746   6.7037   6.7943   6.8287
     7.2493   7.4950

          k =-0.5081-0.2579-0.2971 ( 36478 PWs)   bands (ev):

   -44.1424 -44.1424 -22.2535 -22.2535 -22.2028 -22.2028 -22.0747 -22.0747
    -7.5548  -7.5548  -6.8247  -6.8247  -5.6704  -5.6704  -4.7212  -4.7212
    -4.5453  -4.5453   0.3141   0.3141   0.9734   0.9734   0.9950   0.9950
     1.5456   1.5456   2.0402   2.0402   2.6963   2.6963   3.1631   3.1631
     3.3751   3.3751   3.5479   3.5479   3.7013   3.7013   3.9112   3.9112
     4.2898   4.2898   6.4259   6.4259   6.6474   6.6474   6.8380   6.8380
     7.2237   7.2237

          k =-0.2541-0.1934 0.0000 ( 36410 PWs)   bands (ev):

   -44.1432 -44.1432 -22.2582 -22.2582 -22.1797 -22.1797 -22.0774 -22.0773
    -8.0095  -7.7871  -7.0601  -6.8933  -6.0900  -5.3657  -4.8192  -4.7559
    -4.6911  -3.9618   0.3542   0.8964   0.9928   1.0104   1.2881   1.5321
     1.5846   1.6401   1.8098   2.5581   2.6087   3.2112   3.3246   3.6813
     3.7257   3.7405   3.8577   3.8785   3.9145   4.1950   4.3207   4.3493
     4.3664   4.6288   5.9675   6.0206   6.2486   6.5230   6.5359   6.7338
     7.0112   7.1432

          k =-0.2541-0.1934 0.1485 ( 36427 PWs)   bands (ev):

   -44.1432 -44.1432 -22.2582 -22.2582 -22.1797 -22.1797 -22.0774 -22.0773
    -7.9836  -7.8291  -7.0243  -6.9098  -6.0225  -5.5531  -4.7733  -4.7062
    -4.5870  -4.0480   0.4192   0.8416   0.9263   1.0563   1.2333   1.2640
     1.7155   1.7400   2.1392   2.5577   2.5949   2.9456   3.4189   3.4603
     3.5348   3.7507   3.8423   3.9069   4.0120   4.1749   4.3511   4.3659
     4.6574   4.7767   5.8791   6.0218   6.1334   6.3104   6.3917   6.7932
     7.1717   7.2453

          k =-0.2541-0.1934-0.2971 ( 36422 PWs)   bands (ev):

   -44.1432 -44.1432 -22.2582 -22.2582 -22.1797 -22.1797 -22.0774 -22.0774
    -7.9139  -7.9139  -6.9579  -6.9579  -5.8287  -5.8287  -4.7386  -4.7386
    -4.2809  -4.2809   0.6028   0.6028   1.0218   1.0218   1.1534   1.1534
     1.8333   1.8333   2.4865   2.4865   2.6537   2.6537   3.2682   3.2682
     3.6817   3.6817   3.8414   3.8414   4.1344   4.1344   4.3632   4.3632
     4.9557   4.9557   5.7665   5.7665   6.1868   6.1868   6.5087   6.5087
     7.3571   7.3571

          k = 0.0000-0.1290 0.0000 ( 36417 PWs)   bands (ev):

   -44.1436 -44.1436 -22.2601 -22.2601 -22.1702 -22.1702 -22.0785 -22.0784
    -8.1354  -7.9086  -7.1269  -6.9413  -6.1454  -5.4127  -4.8104  -4.7667
    -4.7335  -3.7865   0.2651   0.7819   0.8598   1.1635   1.3355   1.5674
     1.9495   2.0923   2.2704   2.8028   2.9206   2.9927   3.2859   3.3924
     3.7822   3.9020   3.9367   4.0128   4.2867   4.3357   4.3922   4.7086
     4.7225   5.3314   5.6527   5.9146   5.9355   6.0017   6.0189   6.7700
     7.0691   7.2291

          k = 0.0000-0.1290 0.1485 ( 36419 PWs)   bands (ev):

   -44.1436 -44.1436 -22.2601 -22.2601 -22.1702 -22.1702 -22.0785 -22.0784
    -8.1090  -7.9515  -7.0870  -6.9594  -6.0791  -5.6039  -4.8004  -4.7521
    -4.5390  -3.8965   0.3418   0.8890   0.9274   0.9501   1.1300   1.8694
     1.9670   2.0327   2.0670   2.8254   2.9075   3.0568   3.3737   3.4901
     3.7759   3.9145   3.9534   4.0017   4.2579   4.3202   4.4030   4.7021
     4.7168   4.8857   5.8588   5.9067   5.9342   6.1685   6.3453   6.6125
     6.8820   7.0976

          k = 0.0000-0.1290-0.2971 ( 36464 PWs)   bands (ev):

   -44.1436 -44.1436 -22.2601 -22.2601 -22.1702 -22.1702 -22.0785 -22.0785
    -8.0379  -8.0379  -7.0130  -7.0130  -5.8851  -5.8851  -4.7762  -4.7762
    -4.1819  -4.1819   0.5732   0.5732   0.9930   0.9930   1.3493   1.3493
     2.0133   2.0133   2.5842   2.5842   2.8710   2.8710   3.5917   3.5917
     3.8623   3.8623   4.0924   4.0924   4.2315   4.2315   4.4166   4.4166
     4.7051   4.7051   5.9078   5.9078   6.2355   6.2355   6.5129   6.5129
     6.8041   6.8041

          k = 1.0162 0.0000 0.0000 ( 36499 PWs)   bands (ev):

   -44.1411 -44.1411 -22.2467 -22.2467 -22.2352 -22.2352 -22.0710 -22.0710
    -6.7494  -6.7286  -6.2051  -6.1942  -6.1797  -6.1747  -5.2149  -5.2144
    -4.4558  -4.4269  -0.1254  -0.0861   0.1869   0.2192   0.9990   1.0329
     1.4814   1.6403   2.2105   2.3958   2.4080   2.4105   2.7632   2.8347
     2.8384   2.9055   3.1910   3.2315   3.2749   3.3308   3.5482   3.5797
     3.8928   4.2225   6.6429   6.7158   6.7420   6.7849   7.1694   7.1985
     7.2037   7.2040

          k = 1.0162 0.0000 0.1485 ( 36485 PWs)   bands (ev):

   -44.1411 -44.1411 -22.2467 -22.2467 -22.2352 -22.2352 -22.0710 -22.0710
    -6.7448  -6.7300  -6.2354  -6.2282  -6.1485  -6.1443  -5.2132  -5.2128
    -4.4540  -4.4336  -0.2140  -0.2005   0.3911   0.3939   1.0045   1.0193
     1.4734   1.5781   2.0811   2.1450   2.3572   2.3894   2.6207   2.7186
     2.9324   3.0575   3.0962   3.1830   3.5007   3.5524   3.6544   3.6964
     4.0321   4.2551   6.2085   6.2548   6.5551   6.6437   7.2147   7.2147
     7.4534   7.4559

          k = 1.0162 0.0000-0.2971 ( 36514 PWs)   bands (ev):

   -44.1411 -44.1411 -22.2467 -22.2467 -22.2352 -22.2352 -22.0710 -22.0710
    -6.7357  -6.7357  -6.2492  -6.2492  -6.1304  -6.1304  -5.2113  -5.2113
    -4.4462  -4.4462  -0.2689  -0.2689   0.5794   0.5794   0.9731   0.9731
     1.5097   1.5097   1.9077   1.9077   2.3401   2.3401   2.7289   2.7289
     2.8967   2.8967   3.1659   3.1659   3.6372   3.6372   3.7881   3.7881
     4.3139   4.3139   5.8503   5.8503   6.5046   6.5046   7.2286   7.2286
     7.5539   7.5539

          k = 1.2703 0.0645 0.0000 ( 36468 PWs)   bands (ev):

   -44.1415 -44.1415 -22.2487 -22.2487 -22.2257 -22.2257 -22.0721 -22.0720
    -7.0918  -6.8700  -6.7694  -6.6227  -5.7272  -5.4947  -5.1537  -5.1465
    -4.5264  -4.4615  -0.1861   0.0283   0.2571   0.8857   0.9642   1.2663
     1.5056   1.7156   2.1570   2.1696   2.2192   2.2787   2.4217   2.8733
     2.9820   3.1906   3.3752   3.4619   3.5057   3.5936   3.6060   3.6862
     4.0566   4.4952   6.1115   6.4534   6.5464   6.7799   7.0176   7.1377
     7.3162   7.5743

          k = 1.2703 0.0645 0.1485 ( 36490 PWs)   bands (ev):

   -44.1415 -44.1415 -22.2487 -22.2487 -22.2257 -22.2257 -22.0721 -22.0720
    -7.0699  -6.9267  -6.7261  -6.6357  -5.6887  -5.5224  -5.1599  -5.1520
    -4.5149  -4.4696  -0.1549   0.1562   0.1645   0.8330   0.9082   1.2143
     1.5376   1.6295   1.9961   2.1890   2.2361   2.5944   2.6295   2.9323
     2.9418   3.0919   3.2070   3.3097   3.4810   3.5386   3.7676   3.8361
     4.0439   4.4793   5.8780   6.4897   6.6664   6.8575   6.9824   7.1459
     7.1939   7.5528

          k = 1.2703 0.0645-0.2971 ( 36480 PWs)   bands (ev):

   -44.1415 -44.1415 -22.2487 -22.2487 -22.2257 -22.2257 -22.0721 -22.0721
    -7.0092  -7.0092  -6.6722  -6.6722  -5.6006  -5.6006  -5.1612  -5.1612
    -4.4907  -4.4907  -0.0276  -0.0276   0.4825   0.4825   1.0425   1.0425
     1.5721   1.5721   2.1019   2.1019   2.4783   2.4783   2.8335   2.8335
     3.0167   3.0167   3.1541   3.1541   3.5878   3.5878   3.8879   3.8879
     4.1298   4.1298   6.2680   6.2680   6.5100   6.5100   7.1389   7.1389
     7.4403   7.4404

          k =-0.5081-0.3869 0.0000 ( 36463 PWs)   bands (ev):

   -44.1424 -44.1423 -22.2535 -22.2535 -22.2028 -22.2028 -22.0748 -22.0747
    -7.6405  -7.4303  -6.9075  -6.7752  -5.9207  -5.2472  -5.0200  -4.6557
    -4.5717  -4.4772   0.0886   0.5241   0.6816   1.0226   1.1858   1.5383
     1.6526   1.7597   1.8875   2.0521   2.1707   2.4005   2.5210   3.2893
     3.4710   3.5238   3.5489   3.6168   3.7221   3.7269   3.9656   4.1265
     4.3028   4.9340   5.7630   6.0723   6.2805   6.8069   6.8580   6.8938
     7.3655   7.4752

          k =-0.5081-0.3869 0.1485 ( 36477 PWs)   bands (ev):

   -44.1424 -44.1423 -22.2535 -22.2535 -22.2028 -22.2028 -22.0747 -22.0747
    -7.6161  -7.4704  -6.8796  -6.7891  -5.8544  -5.4287  -4.8798  -4.6224
    -4.6173  -4.4860   0.1446   0.5109   0.7620   0.8632   1.1726   1.3308
     1.6157   1.7126   1.9703   2.0428   2.3831   2.5198   2.8482   3.2268
     3.4558   3.4761   3.5094   3.5654   3.6662   3.7468   3.9285   4.1182
     4.2177   4.5194   6.1771   6.2919   6.3494   6.7383   6.8070   6.9314
     7.1861   7.4818

          k =-0.5081-0.3869-0.2971 ( 36492 PWs)   bands (ev):

   -44.1424 -44.1424 -22.2535 -22.2535 -22.2028 -22.2028 -22.0747 -22.0747
    -7.5505  -7.5505  -6.8281  -6.8281  -5.6737  -5.6737  -4.7289  -4.7289
    -4.5398  -4.5398   0.3154   0.3154   0.9679   0.9679   0.9929   0.9929
     1.6564   1.6564   2.0095   2.0095   2.7402   2.7402   3.0996   3.0996
     3.3669   3.3669   3.5136   3.5136   3.6816   3.6816   3.9239   3.9239
     4.2545   4.2545   6.3940   6.3940   6.6941   6.6941   6.8177   6.8177
     7.2472   7.2472

          k =-0.2541-0.3224 0.0000 ( 36485 PWs)   bands (ev):

   -44.1432 -44.1432 -22.2582 -22.2582 -22.1797 -22.1797 -22.0774 -22.0773
    -8.0039  -7.7860  -7.0551  -6.8953  -6.1068  -5.3706  -4.8393  -4.7519
    -4.6797  -3.9630   0.3794   0.9052   0.9840   1.1253   1.3354   1.5988
     1.6217   1.6493   1.8450   2.4908   2.5656   3.2153   3.4188   3.5532
     3.6100   3.6945   3.7227   3.8686   3.9564   4.1341   4.1807   4.2813
     4.3308   4.6721   6.0588   6.0608   6.3164   6.5455   6.5477   6.8084
     6.9328   7.0643

          k =-0.2541-0.3224 0.1485 ( 36445 PWs)   bands (ev):

   -44.1432 -44.1432 -22.2582 -22.2582 -22.1797 -22.1797 -22.0774 -22.0773
    -7.9784  -7.8269  -7.0215  -6.9116  -6.0368  -5.5587  -4.7915  -4.6996
    -4.5815  -4.0481   0.4439   0.8459   0.9361   1.1677   1.2876   1.3130
     1.7258   1.7602   2.1909   2.4938   2.5555   2.9538   3.4173   3.5003
     3.5475   3.5805   3.6575   3.9051   3.9423   4.1149   4.2676   4.3232
     4.6527   4.7986   5.8778   6.0476   6.1410   6.3663   6.4914   6.7736
     7.1426   7.2293

          k =-0.2541-0.3224-0.2971 ( 36442 PWs)   bands (ev):

   -44.1432 -44.1432 -22.2582 -22.2582 -22.1797 -22.1797 -22.0774 -22.0774
    -7.9097  -7.9097  -6.9585  -6.9585  -5.8379  -5.8379  -4.7438  -4.7438
    -4.2788  -4.2788   0.6228   0.6228   1.0397   1.0397   1.2454   1.2454
     1.8467   1.8467   2.4704   2.4704   2.6531   2.6531   3.2758   3.2758
     3.5511   3.5511   3.8056   3.8056   4.0752   4.0752   4.3025   4.3025
     4.9763   4.9763   5.7363   5.7363   6.1990   6.1990   6.5796   6.5796
     7.3458   7.3458

          k = 0.0000-0.2579 0.0000 ( 36445 PWs)   bands (ev):

   -44.1436 -44.1436 -22.2601 -22.2601 -22.1702 -22.1702 -22.0785 -22.0784
    -8.1303  -7.9077  -7.1201  -6.9430  -6.1638  -5.4190  -4.8344  -4.7612
    -4.7198  -3.7875   0.2970   0.7908   0.9685   1.2155   1.3619   1.6353
     1.9492   2.0911   2.2663   2.8204   2.9278   3.0059   3.2652   3.4994
     3.5599   3.6669   3.8744   3.9574   4.1585   4.2619   4.3362   4.6781
     4.7200   5.2954   5.7006   5.9780   6.0179   6.0380   6.0873   6.7883
     7.0691   7.1136

          k = 0.0000-0.2579 0.1485 ( 36452 PWs)   bands (ev):

   -44.1436 -44.1436 -22.2601 -22.2601 -22.1702 -22.1702 -22.0785 -22.0784
    -8.1042  -7.9494  -7.0826  -6.9607  -6.0950  -5.6108  -4.8173  -4.7442
    -4.5360  -3.8967   0.3738   0.9346   0.9660   1.0233   1.1861   1.8808
     1.9667   2.0661   2.0758   2.8414   2.9162   3.0641   3.3361   3.5042
     3.6654   3.6821   3.9084   3.9274   4.1951   4.2482   4.2816   4.6837
     4.7138   4.8801   5.9033   5.9652   6.0049   6.1834   6.3674   6.6196
     6.8847   7.0217

          k = 0.0000-0.2579-0.2971 ( 36454 PWs)   bands (ev):

   -44.1436 -44.1436 -22.2601 -22.2601 -22.1702 -22.1702 -22.0785 -22.0785
    -8.0342  -8.0342  -7.0123  -7.0123  -5.8958  -5.8958  -4.7805  -4.7805
    -4.1807  -4.1807   0.6082   0.6082   1.0742   1.0742   1.3637   1.3637
     2.0128   2.0128   2.6139   2.6139   2.8832   2.8832   3.4865   3.4865
     3.7795   3.7795   4.0716   4.0716   4.1158   4.1158   4.3705   4.3705
     4.6985   4.6985   5.9518   5.9518   6.2677   6.2677   6.5211   6.5211
     6.7716   6.7716

          k = 1.5243 0.0000 0.0000 ( 36439 PWs)   bands (ev):

   -44.1424 -44.1423 -22.2535 -22.2535 -22.2028 -22.2028 -22.0748 -22.0747
    -7.6380  -7.4298  -6.9078  -6.7761  -5.9239  -5.2476  -5.0225  -4.6575
    -4.5685  -4.4777   0.0842   0.5295   0.6788   1.0198   1.1897   1.6071
     1.6744   1.7308   1.9025   2.0419   2.2093   2.3748   2.5154   3.2517
     3.4816   3.4875   3.5538   3.6117   3.7055   3.7582   3.8946   4.1511
     4.2970   4.9389   5.7593   6.0358   6.3119   6.8220   6.8554   6.9561
     7.3265   7.5185

          k = 1.5243 0.0000 0.1485 ( 36476 PWs)   bands (ev):

   -44.1424 -44.1423 -22.2535 -22.2535 -22.2028 -22.2028 -22.0747 -22.0747
    -7.6138  -7.4695  -6.8805  -6.7903  -5.8570  -5.4293  -4.8831  -4.6204
    -4.6193  -4.4845   0.1415   0.5169   0.7603   0.8566   1.1737   1.3380
     1.7047   1.7180   1.9604   2.0186   2.4317   2.4866   2.8460   3.1954
     3.4107   3.4830   3.5149   3.5602   3.6795   3.7312   3.9088   4.1355
     4.1831   4.5282   6.1519   6.3080   6.3432   6.7093   6.8444   7.0031
     7.1417   7.5018

          k = 1.5243 0.0000-0.2971 ( 36508 PWs)   bands (ev):

   -44.1424 -44.1424 -22.2535 -22.2535 -22.2028 -22.2028 -22.0747 -22.0747
    -7.5487  -7.5487  -6.8296  -6.8296  -5.6750  -5.6750  -4.7320  -4.7320
    -4.5377  -4.5377   0.3159   0.3159   0.9657   0.9657   0.9922   0.9922
     1.7154   1.7154   1.9853   1.9853   2.7672   2.7672   3.0538   3.0538
     3.3682   3.3682   3.5024   3.5024   3.6764   3.6764   3.9253   3.9253
     4.2432   4.2432   6.3810   6.3810   6.6955   6.6955   6.8227   6.8227
     7.2661   7.2661

          k =-0.2541-0.4514 0.0000 ( 36444 PWs)   bands (ev):

   -44.1432 -44.1432 -22.2582 -22.2582 -22.1797 -22.1797 -22.0774 -22.0773
    -7.9998  -7.7852  -7.0521  -6.8959  -6.1190  -5.3740  -4.8523  -4.7473
    -4.6745  -3.9638   0.3915   0.9160   0.9733   1.2492   1.3410   1.6413
     1.6484   1.6913   1.8810   2.4183   2.4942   3.2476   3.4031   3.4693
     3.4878   3.6872   3.7856   3.8702   3.9269   4.0612   4.1016   4.2218
     4.3230   4.6996   6.0816   6.1359   6.3394   6.5632   6.5717   6.8436
     6.8541   7.0308

          k =-0.2541-0.4514 0.1485 ( 36461 PWs)   bands (ev):

   -44.1432 -44.1432 -22.2582 -22.2582 -22.1797 -22.1797 -22.0774 -22.0773
    -7.9746  -7.8252  -7.0199  -6.9125  -6.0470  -5.5626  -4.8027  -4.6961
    -4.5780  -4.0482   0.4558   0.8503   0.9396   1.2503   1.3281   1.3773
     1.7381   1.7845   2.2439   2.4243   2.4792   2.9773   3.3527   3.4017
     3.5256   3.5353   3.7421   3.8869   3.9124   3.9809   4.2419   4.2982
     4.6534   4.8122   5.8770   6.0581   6.1607   6.3777   6.5584   6.7431
     7.1419   7.2162

          k =-0.2541-0.4514-0.2971 ( 36490 PWs)   bands (ev):

   -44.1432 -44.1432 -22.2582 -22.2582 -22.1797 -22.1797 -22.0774 -22.0774
    -7.9068  -7.9068  -6.9590  -6.9590  -5.8444  -5.8444  -4.7475  -4.7475
    -4.2773  -4.2773   0.6325   0.6325   1.0475   1.0475   1.3366   1.3366
     1.8619   1.8619   2.4330   2.4330   2.6556   2.6556   3.2611   3.2611
     3.4353   3.4353   3.8640   3.8640   3.9951   3.9951   4.2718   4.2718
     4.9903   4.9903   5.7182   5.7182   6.1919   6.1919   6.6253   6.6253
     7.3418   7.3418

          k = 0.0000-0.3869 0.0000 ( 36477 PWs)   bands (ev):

   -44.1436 -44.1436 -22.2601 -22.2601 -22.1702 -22.1702 -22.0785 -22.0784
    -8.1252  -7.9067  -7.1140  -6.9436  -6.1826  -5.4250  -4.8544  -4.7502
    -4.7156  -3.7886   0.3188   0.8009   1.1152   1.2778   1.3864   1.7095
     1.9489   2.0898   2.2640   2.8393   2.9346   3.0313   3.1669   3.2565
     3.5027   3.6570   3.8463   3.9627   4.0196   4.0866   4.3367   4.6478
     4.7177   5.2729   5.7486   6.0560   6.0574   6.0702   6.1448   6.7582
     7.0332   7.0690

          k = 0.0000-0.3869 0.1485 ( 36452 PWs)   bands (ev):

   -44.1436 -44.1436 -22.2601 -22.2601 -22.1702 -22.1702 -22.0785 -22.0784
    -8.0995  -7.9474  -7.0787  -6.9613  -6.1111  -5.6176  -4.8313  -4.7389
    -4.5333  -3.8970   0.3947   0.9524   0.9950   1.1706   1.2600   1.8941
     1.9663   2.0652   2.1220   2.8584   2.9246   3.0355   3.1978   3.3346
     3.5107   3.7572   3.9008   3.9295   4.0666   4.1213   4.2376   4.6664
     4.7109   4.8790   5.9548   6.0132   6.0437   6.1987   6.3797   6.5936
     6.8874   6.9614

          k = 0.0000-0.3869-0.2971 ( 36454 PWs)   bands (ev):

   -44.1436 -44.1436 -22.2601 -22.2601 -22.1702 -22.1702 -22.0785 -22.0785
    -8.0304  -8.0304  -7.0117  -7.0117  -5.9065  -5.9065  -4.7849  -4.7849
    -4.1794  -4.1794   0.6304   0.6304   1.1891   1.1891   1.3815   1.3815
     2.0123   2.0123   2.6416   2.6416   2.8959   2.8959   3.2409   3.2409
     3.8304   3.8304   4.0147   4.0147   4.0501   4.0501   4.3287   4.3287
     4.6924   4.6924   5.9710   5.9710   6.2978   6.2978   6.5295   6.5295
     6.7295   6.7295

          k =-2.0325 0.0000 0.0000 ( 36452 PWs)   bands (ev):

   -44.1436 -44.1436 -22.2601 -22.2601 -22.1702 -22.1702 -22.0785 -22.0784
    -8.1230  -7.9063  -7.1117  -6.9435  -6.1906  -5.4275  -4.8619  -4.7440
    -4.7163  -3.7890   0.3249   0.8054   1.2428   1.2476   1.3961   1.7538
     1.9487   2.0893   2.2636   2.8477   2.9372   3.0461   3.0663   3.1379
     3.4756   3.8195   3.8345   3.8786   3.9665   3.9977   4.3369   4.6354
     4.7167   5.2657   5.7683   6.0655   6.0866   6.0969   6.1628   6.7205
     7.0167   7.0689

          k =-2.0325 0.0000 0.1485 ( 36456 PWs)   bands (ev):

   -44.1436 -44.1436 -22.2601 -22.2601 -22.1702 -22.1702 -22.0785 -22.0784
    -8.0975  -7.9465  -7.0772  -6.9613  -6.1179  -5.6203  -4.8367  -4.7370
    -4.5323  -3.8970   0.4002   0.9601   1.0068   1.2576   1.2854   1.9002
     1.9662   2.0648   2.1454   2.8659   2.9280   2.9857   3.0805   3.3004
     3.4793   3.8638   3.8896   3.9471   3.9824   4.0221   4.2329   4.6595
     4.7097   4.8790   5.9782   6.0363   6.0508   6.2051   6.3823   6.5693
     6.8886   6.9438

          k =-2.0325 0.0000-0.2971 ( 36460 PWs)   bands (ev):

   -44.1436 -44.1436 -22.2601 -22.2601 -22.1702 -22.1702 -22.0785 -22.0785
    -8.0289  -8.0289  -7.0115  -7.0115  -5.9110  -5.9110  -4.7867  -4.7867
    -4.1788  -4.1788   0.6365   0.6365   1.2479   1.2479   1.3914   1.3914
     2.0120   2.0120   2.6500   2.6500   2.9013   2.9013   3.1265   3.1265
     3.8985   3.8985   3.9358   3.9358   4.0410   4.0410   4.3140   4.3140
     4.6900   4.6900   5.9744   5.9744   6.3090   6.3090   6.5331   6.5331
     6.7107   6.7107

     the Fermi energy is     5.6082 ev

!    total energy              =   -4240.94401222 Ry

     total all-electron energy =   -150287.637707 Ry
     estimated scf accuracy    <          2.8E-11 Ry
     smearing contrib. (-TS)   =       0.00000285 Ry
     internal energy E=F+TS    =   -4240.94401507 Ry

     The total energy is F=E-TS. E is the sum of the following terms:
     one-electron contribution =    -168.14530498 Ry
     hartree contribution      =     117.53310920 Ry
     xc contribution           =    -201.57952333 Ry
     ewald contribution        =    -221.21864375 Ry
     one-center paw contrib.   =   -3767.53365221 Ry

     convergence has been achieved in  18 iterations

     Forces acting on atoms (cartesian axes, Ry/au):

     atom    1 type  1   force =     0.00000000    0.01299773    0.00000000
     atom    2 type  1   force =     0.00000000   -0.01299773    0.00000000
     atom    3 type  2   force =     0.00000000   -0.00009604    0.00000000
     atom    4 type  2   force =     0.00000000    0.00009604    0.00000000
     atom    5 type  2   force =     0.00000000   -0.00299464   -0.00158922
     atom    6 type  2   force =     0.00000000    0.00299464    0.00158922
     atom    7 type  2   force =     0.00000000   -0.00299464    0.00158922
     atom    8 type  2   force =     0.00000000    0.00299464   -0.00158922
     atom    9 type  2   force =     0.00000000   -0.02246519   -0.02514066
     atom   10 type  2   force =     0.00000000    0.02246519    0.02514066
     atom   11 type  2   force =     0.00000000   -0.02246519    0.02514066
     atom   12 type  2   force =     0.00000000    0.02246519   -0.02514066

     Total force =     0.070220     Total SCF correction =     0.000008


     Computing stress (Cartesian axis) and pressure

          total   stress  (Ry/bohr**3)                   (kbar)     P=        5.87
   0.00004190   0.00000000   0.00000000            6.16        0.00        0.00
  -0.00000000   0.00002426   0.00000000           -0.00        3.57        0.00
   0.00000000   0.00000000   0.00005362            0.00        0.00        7.89

 
     init_run     :     35.17s CPU     35.81s WALL (       1 calls)
     electrons    :   1734.36s CPU   1753.24s WALL (       1 calls)
     forces       :      7.68s CPU      7.97s WALL (       1 calls)
     stress       :     48.94s CPU     49.59s WALL (       1 calls)

     Called by init_run:
     wfcinit      :     30.39s CPU     30.68s WALL (       1 calls)
     potinit      :      1.47s CPU      1.53s WALL (       1 calls)
     hinit0       :      1.63s CPU      1.64s WALL (       1 calls)

     Called by electrons:
     c_bands      :   1402.46s CPU   1410.13s WALL (      19 calls)
     sum_band     :    295.19s CPU    301.67s WALL (      19 calls)
     v_of_rho     :      9.18s CPU      9.85s WALL (      19 calls)
     newd         :     19.63s CPU     23.87s WALL (      19 calls)
     PAW_pot      :      7.17s CPU      7.18s WALL (      19 calls)
     mix_rho      :      1.70s CPU      1.75s WALL (      19 calls)

     Called by c_bands:
     init_us_2    :     14.47s CPU     14.55s WALL (    2583 calls)
     cegterg      :   1320.97s CPU   1327.90s WALL (    1197 calls)

     Called by *egterg:
     cdiaghg      :     27.96s CPU     28.10s WALL (    8000 calls)
     h_psi        :   1143.09s CPU   1149.76s WALL (    8126 calls)
     s_psi        :     52.09s CPU     52.18s WALL (    8126 calls)
     g_psi        :      2.24s CPU      2.26s WALL (    6866 calls)

     Called by h_psi:
     h_psi:calbec :     43.64s CPU     43.76s WALL (    8126 calls)
     vloc_psi     :   1043.08s CPU   1049.46s WALL (    8126 calls)
     add_vuspsi   :     52.24s CPU     52.34s WALL (    8126 calls)

     General routines
     calbec       :     57.60s CPU     57.77s WALL (    9638 calls)
     fft          :      8.43s CPU      8.65s WALL (     271 calls)
     ffts         :      0.21s CPU      0.21s WALL (      38 calls)
     fftw         :   1028.44s CPU   1034.56s WALL (  429470 calls)
     interpolate  :      0.70s CPU      0.70s WALL (      19 calls)
 
     Parallel routines
     fft_scatt_xy :    284.43s CPU    286.11s WALL (  429779 calls)
     fft_scatt_yz :    173.18s CPU    174.65s WALL (  429779 calls)
 
     PWSCF        :  30m27.14s CPU  30m53.13s WALL

 
   This run was terminated on:  15:17:12  19Nov2021            

=------------------------------------------------------------------------------=
   JOB DONE.
=------------------------------------------------------------------------------=
