
     Program PWSCF v.6.7MaX starts on 19Nov2021 at 14:46:19 

     This program is part of the open-source Quantum ESPRESSO suite
     for quantum simulation of materials; please cite
         "P. Giannozzi et al., J. Phys.:Condens. Matter 21 395502 (2009);
         "P. Giannozzi et al., J. Phys.:Condens. Matter 29 465901 (2017);
          URL http://www.quantum-espresso.org", 
     in publications or presentations arising from this work. More details at
     http://www.quantum-espresso.org/quote

     Parallel version (MPI), running on    10 processors

     MPI processes distributed on     1 nodes
     R & G space division:  proc/nbgrp/npool/nimage =      10
     Waiting for input...
     Reading input from standard input

     Current dimensions of program PWSCF are:
     Max number of different atomic species (ntypx) = 10
     Max number of k-points (npk) =  40000
     Max angular momentum in pseudopotentials (lmaxx) =  3
     file Zr.pbe-spn-kjpaw_psl.1.0.0.UPF: wavefunction(s)  4S 4P renormalized
     file Te.pbe-n-kjpaw_psl.1.0.0.UPF: wavefunction(s)  5S 5P renormalized

     Subspace diagonalization in iterative solution of the eigenvalue problem:
     a serial algorithm will be used

     Message from routine setup:
     using ibrav=0 with symmetry is DISCOURAGED, use correct ibrav instead
 
     Parallelization info
     --------------------
     sticks:   dense  smooth     PW     G-vecs:    dense   smooth      PW
     Min         734     293     87               115340    29174    4753
     Max         735     295     88               115345    29176    4760
     Sum        7345    2937    873              1153415   291749   47557
 


     bravais-lattice index     =            0
     lattice parameter (alat)  =      15.5510  a.u.
     unit-cell volume          =    3018.5011 (a.u.)^3
     number of atoms/cell      =           12
     number of atomic types    =            2
     number of electrons       =        84.00
     number of Kohn-Sham states=           50
     kinetic-energy cutoff     =      80.0000  Ry
     charge density cutoff     =     800.0000  Ry
     scf convergence threshold =      1.0E-10
     mixing beta               =       0.7000
     number of iterations used =            8  plain     mixing
     Exchange-correlation= SLA  PW   PBX  PBC
                           (   1   4   3   4   0   0   0)

     celldm(1)=  15.551040  celldm(2)=   0.000000  celldm(3)=   0.000000
     celldm(4)=   0.000000  celldm(5)=   0.000000  celldm(6)=   0.000000

     crystal axes: (cart. coord. in units of alat)
               a(1) = (   0.246007  -0.969268   0.000000 )  
               a(2) = (   0.246007   0.969268   0.000000 )  
               a(3) = (   0.000000   0.000000   1.683031 )  

     reciprocal axes: (cart. coord. in units 2 pi/alat)
               b(1) = (  2.032465 -0.515853  0.000000 )  
               b(2) = (  2.032465  0.515853  0.000000 )  
               b(3) = (  0.000000  0.000000  0.594166 )  


     PseudoPot. # 1 for Zr read from file:
     pseudo/Zr.pbe-spn-kjpaw_psl.1.0.0.UPF
     MD5 check sum: 02112c41713a0468aff2bb39ef194e36
     Pseudo is Projector augmented-wave + core cor, Zval = 12.0
     Generated using &quot;atomic&quot; code by A. Dal Corso  v.6.2.2
     Shape of augmentation charge: PSQ
     Using radial grid of 1225 points,  6 beta functions with: 
                l(1) =   0
                l(2) =   0
                l(3) =   1
                l(4) =   1
                l(5) =   2
                l(6) =   2
     Q(r) pseudized with 0 coefficients 


     PseudoPot. # 2 for Te read from file:
     pseudo/Te.pbe-n-kjpaw_psl.1.0.0.UPF
     MD5 check sum: 66247bff2bd9dbf220fbb0bf5ab56e9d
     Pseudo is Projector augmented-wave + core cor, Zval =  6.0
     Generated using &quot;atomic&quot; code by A. Dal Corso  v.6.3
     Shape of augmentation charge: PSQ
     Using radial grid of 1245 points,  6 beta functions with: 
                l(1) =   0
                l(2) =   0
                l(3) =   1
                l(4) =   1
                l(5) =   2
                l(6) =   2
     Q(r) pseudized with 0 coefficients 


     atomic species   valence    mass     pseudopotential
        Zr            12.00    91.22000     Zr( 1.00)
        Te             6.00   127.60000     Te( 1.00)

      8 Sym. Ops., with inversion, found ( 4 have fractional translation)



   Cartesian axes

     site n.     atom                  positions (alat units)
         1           Zr  tau(   1) = (   0.0000000   0.6000591   0.4207578  )
         2           Zr  tau(   2) = (   0.2460067   0.3692090   1.2622733  )
         3           Te  tau(   3) = (   0.2460067   0.3341369   0.4207578  )
         4           Te  tau(   4) = (   0.0000000   0.6351312   1.2622733  )
         5           Te  tau(   5) = (   0.2460067   0.8123514   0.2537873  )
         6           Te  tau(   6) = (   0.0000000   0.1569168   1.4292437  )
         7           Te  tau(   7) = (   0.2460067   0.8123514   0.5877282  )
         8           Te  tau(   8) = (   0.0000000   0.1569168   1.0953029  )
         9           Te  tau(   9) = (   0.0000000   0.4246117   0.7401558  )
        10           Te  tau(  10) = (   0.2460067   0.5446564   0.9428752  )
        11           Te  tau(  11) = (   0.0000000   0.4246117   0.1013597  )
        12           Te  tau(  12) = (   0.2460067   0.5446564   1.5816714  )

     number of k points=    63  Methfessel-Paxton smearing, width (Ry)=  0.0030
                       cart. coord. in units 2pi/alat
        k(    1) = (   0.0000000   0.0000000   0.0000000), wk =   0.0078125
        k(    2) = (   0.0000000   0.0000000   0.1485415), wk =   0.0156250
        k(    3) = (   0.0000000   0.0000000  -0.2970830), wk =   0.0078125
        k(    4) = (   0.2540581   0.0644816   0.0000000), wk =   0.0312500
        k(    5) = (   0.2540581   0.0644816   0.1485415), wk =   0.0625000
        k(    6) = (   0.2540581   0.0644816  -0.2970830), wk =   0.0312500
        k(    7) = (   0.5081162   0.1289633   0.0000000), wk =   0.0312500
        k(    8) = (   0.5081162   0.1289633   0.1485415), wk =   0.0625000
        k(    9) = (   0.5081162   0.1289633  -0.2970830), wk =   0.0312500
        k(   10) = (   0.7621743   0.1934449   0.0000000), wk =   0.0312500
        k(   11) = (   0.7621743   0.1934449   0.1485415), wk =   0.0625000
        k(   12) = (   0.7621743   0.1934449  -0.2970830), wk =   0.0312500
        k(   13) = (  -1.0162324  -0.2579266   0.0000000), wk =   0.0156250
        k(   14) = (  -1.0162324  -0.2579266   0.1485415), wk =   0.0312500
        k(   15) = (  -1.0162324  -0.2579266  -0.2970830), wk =   0.0156250
        k(   16) = (   0.5081162   0.0000000   0.0000000), wk =   0.0156250
        k(   17) = (   0.5081162   0.0000000   0.1485415), wk =   0.0312500
        k(   18) = (   0.5081162   0.0000000  -0.2970830), wk =   0.0156250
        k(   19) = (   0.7621743   0.0644816   0.0000000), wk =   0.0312500
        k(   20) = (   0.7621743   0.0644816   0.1485415), wk =   0.0625000
        k(   21) = (   0.7621743   0.0644816  -0.2970830), wk =   0.0312500
        k(   22) = (   1.0162324   0.1289633   0.0000000), wk =   0.0312500
        k(   23) = (   1.0162324   0.1289633   0.1485415), wk =   0.0625000
        k(   24) = (   1.0162324   0.1289633  -0.2970830), wk =   0.0312500
        k(   25) = (  -0.7621743  -0.3224082   0.0000000), wk =   0.0312500
        k(   26) = (  -0.7621743  -0.3224082   0.1485415), wk =   0.0625000
        k(   27) = (  -0.7621743  -0.3224082  -0.2970830), wk =   0.0312500
        k(   28) = (  -0.5081162  -0.2579266   0.0000000), wk =   0.0312500
        k(   29) = (  -0.5081162  -0.2579266   0.1485415), wk =   0.0625000
        k(   30) = (  -0.5081162  -0.2579266  -0.2970830), wk =   0.0312500
        k(   31) = (  -0.2540581  -0.1934449   0.0000000), wk =   0.0312500
        k(   32) = (  -0.2540581  -0.1934449   0.1485415), wk =   0.0625000
        k(   33) = (  -0.2540581  -0.1934449  -0.2970830), wk =   0.0312500
        k(   34) = (   0.0000000  -0.1289633   0.0000000), wk =   0.0156250
        k(   35) = (   0.0000000  -0.1289633   0.1485415), wk =   0.0312500
        k(   36) = (   0.0000000  -0.1289633  -0.2970830), wk =   0.0156250
        k(   37) = (   1.0162324   0.0000000   0.0000000), wk =   0.0156250
        k(   38) = (   1.0162324   0.0000000   0.1485415), wk =   0.0312500
        k(   39) = (   1.0162324   0.0000000  -0.2970830), wk =   0.0156250
        k(   40) = (   1.2702905   0.0644816   0.0000000), wk =   0.0312500
        k(   41) = (   1.2702905   0.0644816   0.1485415), wk =   0.0625000
        k(   42) = (   1.2702905   0.0644816  -0.2970830), wk =   0.0312500
        k(   43) = (  -0.5081162  -0.3868899   0.0000000), wk =   0.0312500
        k(   44) = (  -0.5081162  -0.3868899   0.1485415), wk =   0.0625000
        k(   45) = (  -0.5081162  -0.3868899  -0.2970830), wk =   0.0312500
        k(   46) = (  -0.2540581  -0.3224082   0.0000000), wk =   0.0312500
        k(   47) = (  -0.2540581  -0.3224082   0.1485415), wk =   0.0625000
        k(   48) = (  -0.2540581  -0.3224082  -0.2970830), wk =   0.0312500
        k(   49) = (   0.0000000  -0.2579266   0.0000000), wk =   0.0156250
        k(   50) = (   0.0000000  -0.2579266   0.1485415), wk =   0.0312500
        k(   51) = (   0.0000000  -0.2579266  -0.2970830), wk =   0.0156250
        k(   52) = (   1.5243485   0.0000000   0.0000000), wk =   0.0156250
        k(   53) = (   1.5243485   0.0000000   0.1485415), wk =   0.0312500
        k(   54) = (   1.5243485   0.0000000  -0.2970830), wk =   0.0156250
        k(   55) = (  -0.2540581  -0.4513715   0.0000000), wk =   0.0312500
        k(   56) = (  -0.2540581  -0.4513715   0.1485415), wk =   0.0625000
        k(   57) = (  -0.2540581  -0.4513715  -0.2970830), wk =   0.0312500
        k(   58) = (   0.0000000  -0.3868899   0.0000000), wk =   0.0156250
        k(   59) = (   0.0000000  -0.3868899   0.1485415), wk =   0.0312500
        k(   60) = (   0.0000000  -0.3868899  -0.2970830), wk =   0.0156250
        k(   61) = (  -2.0324647   0.0000000   0.0000000), wk =   0.0078125
        k(   62) = (  -2.0324647   0.0000000   0.1485415), wk =   0.0156250
        k(   63) = (  -2.0324647   0.0000000  -0.2970830), wk =   0.0078125

     Dense  grid:  1153415 G-vectors     FFT dimensions: ( 144, 144, 240)

     Smooth grid:   291749 G-vectors     FFT dimensions: (  90,  90, 150)

     Estimated max dynamical RAM per process >     657.19 MB

     Estimated total dynamical RAM >       6.42 GB

     Initial potential from superposition of free atoms

     starting charge   83.99353, renormalised to   84.00000
     Starting wfcs are   66 randomized atomic wfcs
     Checking if some PAW data can be deallocated... 

     total cpu time spent up to now is       45.3 secs

     Self-consistent Calculation

     iteration #  1     ecut=    80.00 Ry     beta= 0.70
     Davidson diagonalization with overlap
     ethr =  1.00E-02,  avg # of iterations =  2.2

     Threshold (ethr) on eigenvalues was too large:
     Diagonalizing with lowered threshold

     Davidson diagonalization with overlap
     ethr =  4.68E-04,  avg # of iterations =  4.0

     total cpu time spent up to now is      205.2 secs

     total energy              =   -4240.70048026 Ry
     estimated scf accuracy    <       0.45271204 Ry

     iteration #  2     ecut=    80.00 Ry     beta= 0.70
     Davidson diagonalization with overlap
     ethr =  5.39E-04,  avg # of iterations =  8.1

     total cpu time spent up to now is      318.7 secs

     total energy              =   -4240.59940432 Ry
     estimated scf accuracy    <       2.03919675 Ry

     iteration #  3     ecut=    80.00 Ry     beta= 0.70
     Davidson diagonalization with overlap
     ethr =  5.39E-04,  avg # of iterations =  5.4

     total cpu time spent up to now is      413.3 secs

     total energy              =   -4240.91950044 Ry
     estimated scf accuracy    <       0.00785412 Ry

     iteration #  4     ecut=    80.00 Ry     beta= 0.70
     Davidson diagonalization with overlap
     c_bands:  1 eigenvalues not converged
     c_bands:  1 eigenvalues not converged
     c_bands:  2 eigenvalues not converged
     c_bands:  1 eigenvalues not converged
     c_bands:  2 eigenvalues not converged
     c_bands:  2 eigenvalues not converged
     c_bands:  2 eigenvalues not converged
     c_bands:  1 eigenvalues not converged
     c_bands:  1 eigenvalues not converged
     c_bands:  4 eigenvalues not converged
     c_bands:  1 eigenvalues not converged
     c_bands:  3 eigenvalues not converged
     c_bands:  2 eigenvalues not converged
     c_bands:  2 eigenvalues not converged
     c_bands:  3 eigenvalues not converged
     c_bands:  1 eigenvalues not converged
     c_bands:  1 eigenvalues not converged
     c_bands:  1 eigenvalues not converged
     c_bands:  1 eigenvalues not converged
     c_bands:  1 eigenvalues not converged
     c_bands:  1 eigenvalues not converged
     ethr =  9.35E-06,  avg # of iterations = 17.5

     total cpu time spent up to now is      591.7 secs

     total energy              =   -4240.92878609 Ry
     estimated scf accuracy    <       0.03710089 Ry

     iteration #  5     ecut=    80.00 Ry     beta= 0.70
     Davidson diagonalization with overlap
     ethr =  9.35E-06,  avg # of iterations =  6.9

     total cpu time spent up to now is      684.9 secs

     total energy              =   -4240.93059468 Ry
     estimated scf accuracy    <       0.00614573 Ry

     iteration #  6     ecut=    80.00 Ry     beta= 0.70
     Davidson diagonalization with overlap
     ethr =  7.32E-06,  avg # of iterations =  3.4

     total cpu time spent up to now is      763.0 secs

     total energy              =   -4240.93113382 Ry
     estimated scf accuracy    <       0.00089939 Ry

     iteration #  7     ecut=    80.00 Ry     beta= 0.70
     Davidson diagonalization with overlap
     ethr =  1.07E-06,  avg # of iterations =  9.2

     total cpu time spent up to now is      877.0 secs

     total energy              =   -4240.93155508 Ry
     estimated scf accuracy    <       0.00083474 Ry

     iteration #  8     ecut=    80.00 Ry     beta= 0.70
     Davidson diagonalization with overlap
     ethr =  9.94E-07,  avg # of iterations =  2.4

     total cpu time spent up to now is      947.8 secs

     total energy              =   -4240.93158571 Ry
     estimated scf accuracy    <       0.00011448 Ry

     iteration #  9     ecut=    80.00 Ry     beta= 0.70
     Davidson diagonalization with overlap
     ethr =  1.36E-07,  avg # of iterations =  6.3

     total cpu time spent up to now is     1039.5 secs

     total energy              =   -4240.93162400 Ry
     estimated scf accuracy    <       0.00001418 Ry

     iteration # 10     ecut=    80.00 Ry     beta= 0.70
     Davidson diagonalization with overlap
     ethr =  1.69E-08,  avg # of iterations =  3.5

     total cpu time spent up to now is     1115.4 secs

     total energy              =   -4240.93162642 Ry
     estimated scf accuracy    <       0.00000115 Ry

     iteration # 11     ecut=    80.00 Ry     beta= 0.70
     Davidson diagonalization with overlap
     ethr =  1.37E-09,  avg # of iterations =  7.2

     total cpu time spent up to now is     1219.5 secs

     total energy              =   -4240.93162734 Ry
     estimated scf accuracy    <       0.00000037 Ry

     iteration # 12     ecut=    80.00 Ry     beta= 0.70
     Davidson diagonalization with overlap
     ethr =  4.42E-10,  avg # of iterations =  3.3

     total cpu time spent up to now is     1293.6 secs

     total energy              =   -4240.93162739 Ry
     estimated scf accuracy    <       0.00000003 Ry

     iteration # 13     ecut=    80.00 Ry     beta= 0.70
     Davidson diagonalization with overlap
     ethr =  3.66E-11,  avg # of iterations =  8.2

     total cpu time spent up to now is     1403.0 secs

     total energy              =   -4240.93162741 Ry
     estimated scf accuracy    <       0.00000002 Ry

     iteration # 14     ecut=    80.00 Ry     beta= 0.70
     Davidson diagonalization with overlap
     ethr =  2.78E-11,  avg # of iterations =  2.3

     total cpu time spent up to now is     1473.4 secs

     total energy              =   -4240.93162741 Ry
     estimated scf accuracy    <          4.5E-09 Ry

     iteration # 15     ecut=    80.00 Ry     beta= 0.70
     Davidson diagonalization with overlap
     ethr =  5.40E-12,  avg # of iterations =  6.0

     total cpu time spent up to now is     1563.0 secs

     total energy              =   -4240.93162741 Ry
     estimated scf accuracy    <          1.5E-09 Ry

     iteration # 16     ecut=    80.00 Ry     beta= 0.70
     Davidson diagonalization with overlap
     ethr =  1.74E-12,  avg # of iterations =  1.8

     total cpu time spent up to now is     1623.6 secs

     total energy              =   -4240.93162741 Ry
     estimated scf accuracy    <          4.3E-10 Ry

     iteration # 17     ecut=    80.00 Ry     beta= 0.70
     Davidson diagonalization with overlap
     ethr =  5.15E-13,  avg # of iterations =  5.1

     total cpu time spent up to now is     1687.1 secs

     End of self-consistent calculation

          k = 0.0000 0.0000 0.0000 ( 36359 PWs)   bands (ev):

   -44.1511 -44.1511 -22.2635 -22.2634 -22.1744 -22.1744 -22.0883 -22.0881
    -8.2955  -8.1116  -7.1328  -6.9716  -6.0631  -5.4006  -4.7819  -4.7329
    -4.6729  -3.7574   0.2038   0.8045   0.8396   1.1659   1.2575   1.5320
     1.7559   1.8563   2.2596   2.8177   2.9158   2.9721   3.2291   3.3970
     3.8730   3.9623   4.1078   4.1083   4.3399   4.3745   4.4862   4.6795
     4.7480   5.2563   5.6241   5.8597   5.8736   5.9222   6.0960   6.6944
     7.1182   7.2848

          k = 0.0000 0.0000 0.1485 ( 36415 PWs)   bands (ev):

   -44.1511 -44.1511 -22.2635 -22.2634 -22.1744 -22.1744 -22.0883 -22.0881
    -8.2729  -8.1441  -7.1012  -6.9889  -6.0018  -5.5673  -4.7719  -4.7395
    -4.4786  -3.8642   0.2829   0.8484   0.9216   0.9404   1.1232   1.7690
     1.8397   1.8490   1.9965   2.8348   2.9038   3.0083   3.3741   3.4844
     3.8159   4.0088   4.0746   4.1254   4.2938   4.3839   4.4863   4.6928
     4.7393   4.8325   5.8302   5.8576   5.8592   6.2330   6.2659   6.5611
     6.9237   7.1006

          k = 0.0000 0.0000-0.2971 ( 36410 PWs)   bands (ev):

   -44.1511 -44.1511 -22.2634 -22.2634 -22.1744 -22.1744 -22.0882 -22.0882
    -8.2132  -8.2132  -7.0381  -7.0381  -5.8234  -5.8234  -4.7554  -4.7554
    -4.1400  -4.1400   0.5155   0.5155   0.9855   0.9855   1.3505   1.3505
     1.8026   1.8026   2.5358   2.5358   2.8718   2.8718   3.6249   3.6249
     3.9315   3.9315   4.1359   4.1359   4.2888   4.2888   4.4612   4.4612
     4.7176   4.7176   5.8492   5.8492   6.2092   6.2092   6.5593   6.5593
     6.7353   6.7353

          k = 0.2541 0.0645 0.0000 ( 36396 PWs)   bands (ev):

   -44.1508 -44.1507 -22.2615 -22.2615 -22.1840 -22.1839 -22.0872 -22.0871
    -8.1686  -7.9868  -7.0689  -6.9220  -6.0050  -5.3521  -4.7453  -4.7243
    -4.6861  -3.9458   0.2813   0.8345   0.9147   0.9629   1.2530   1.4496
     1.4618   1.5290   1.7631   2.5985   2.6315   3.1833   3.3122   3.6946
     3.7802   3.7993   3.8938   3.9226   4.0869   4.2753   4.3425   4.4412
     4.4619   4.6137   5.9519   5.9826   6.1514   6.4259   6.4550   6.7146
     7.0548   7.2430

          k = 0.2541 0.0645 0.1485 ( 36423 PWs)   bands (ev):

   -44.1508 -44.1508 -22.2615 -22.2615 -22.1840 -22.1839 -22.0872 -22.0871
    -8.1462  -8.0189  -7.0400  -6.9377  -5.9436  -5.5164  -4.7342  -4.6952
    -4.5462  -4.0292   0.3492   0.7461   0.8974   1.0018   1.1316   1.2193
     1.5507   1.7112   2.0555   2.6007   2.6138   2.9404   3.4251   3.4488
     3.5165   3.8628   3.9750   4.0435   4.0718   4.2299   4.4188   4.4618
     4.6638   4.7336   5.8916   6.0166   6.1128   6.2163   6.2679   6.8224
     7.2114   7.2337

          k = 0.2541 0.0645-0.2971 ( 36436 PWs)   bands (ev):

   -44.1508 -44.1508 -22.2615 -22.2615 -22.1839 -22.1839 -22.0871 -22.0871
    -8.0872  -8.0872  -6.9825  -6.9825  -5.7670  -5.7670  -4.7147  -4.7147
    -4.2538  -4.2538   0.5347   0.5347   0.9323   0.9323   1.1140   1.1140
     1.7152   1.7152   2.4850   2.4850   2.6466   2.6466   3.2880   3.2880
     3.6907   3.6907   4.0199   4.0199   4.1813   4.1813   4.4499   4.4499
     4.9048   4.9048   5.7896   5.7896   6.1358   6.1358   6.4821   6.4821
     7.3518   7.3519

          k = 0.5081 0.1290 0.0000 ( 36499 PWs)   bands (ev):

   -44.1499 -44.1499 -22.2568 -22.2568 -22.2068 -22.2068 -22.0846 -22.0845
    -7.7966  -7.6194  -6.9163  -6.7994  -5.8412  -5.2312  -4.9880  -4.6204
    -4.5734  -4.4937  -0.0362   0.4144   0.7129   0.9241   1.1611   1.3099
     1.6344   1.7174   1.7480   2.0760   2.1412   2.4258   2.5886   3.4363
     3.4679   3.5639   3.5699   3.6991   3.7636   3.8539   4.0081   4.2376
     4.3017   4.8411   5.8854   6.1832   6.2995   6.6116   6.6527   7.0700
     7.4250   7.5480

          k = 0.5081 0.1290 0.1485 ( 36476 PWs)   bands (ev):

   -44.1499 -44.1499 -22.2568 -22.2568 -22.2068 -22.2068 -22.0846 -22.0845
    -7.7750  -7.6511  -6.8930  -6.8120  -5.7830  -5.3965  -4.8537  -4.6127
    -4.5965  -4.5043   0.0205   0.3734   0.7866   0.8291   1.1539   1.2526
     1.4017   1.5853   2.0018   2.0897   2.3037   2.5087   2.8767   3.3530
     3.4577   3.4954   3.5417   3.7016   3.7659   3.7970   3.8870   4.2616
     4.3026   4.4620   6.2583   6.3105   6.4454   6.6111   6.7143   6.9434
     7.2824   7.5273

          k = 0.5081 0.1290-0.2971 ( 36466 PWs)   bands (ev):

   -44.1499 -44.1499 -22.2568 -22.2568 -22.2068 -22.2068 -22.0845 -22.0845
    -7.7178  -7.7178  -6.8475  -6.8475  -5.6211  -5.6211  -4.7050  -4.7050
    -4.5467  -4.5467   0.1857   0.1857   0.9446   0.9446   0.9837   0.9837
     1.4689   1.4689   2.0550   2.0550   2.6474   2.6474   3.1869   3.1869
     3.3862   3.3862   3.5882   3.5882   3.7651   3.7651   3.9262   3.9262
     4.3446   4.3446   6.4908   6.4908   6.5729   6.5729   6.8922   6.8922
     7.2610   7.2610

          k = 0.7622 0.1934 0.0000 ( 36521 PWs)   bands (ev):

   -44.1490 -44.1490 -22.2521 -22.2521 -22.2296 -22.2296 -22.0820 -22.0819
    -7.2207  -7.0361  -6.7723  -6.6565  -5.7313  -5.5465  -5.1538  -5.1282
    -4.4927  -4.4543  -0.2568   0.0252   0.1663   0.9043   0.9159   1.3036
     1.4899   1.5960   2.0168   2.1691   2.2264   2.2653   2.4605   2.8141
     3.0022   3.2309   3.3571   3.4470   3.5221   3.6678   3.7236   3.7542
     3.8776   4.5896   6.2085   6.4743   6.5851   6.9527   6.9767   7.0309
     7.3973   7.6310

          k = 0.7622 0.1934 0.1485 ( 36503 PWs)   bands (ev):

   -44.1490 -44.1490 -22.2521 -22.2521 -22.2296 -22.2296 -22.0820 -22.0819
    -7.2000  -7.0735  -6.7462  -6.6683  -5.7006  -5.5688  -5.1547  -5.1382
    -4.4854  -4.4586  -0.2202   0.0745   0.1466   0.7715   0.9435   1.2504
     1.4987   1.5957   1.9989   2.0274   2.1612   2.5670   2.7082   2.9011
     2.9588   3.0236   3.2733   3.3449   3.5085   3.6004   3.7656   3.9298
     3.9900   4.4625   6.0468   6.4549   6.7609   6.9107   7.0444   7.1002
     7.1987   7.6685

          k = 0.7622 0.1934-0.2971 ( 36522 PWs)   bands (ev):

   -44.1490 -44.1490 -22.2521 -22.2521 -22.2296 -22.2296 -22.0819 -22.0819
    -7.1439  -7.1439  -6.7012  -6.7012  -5.6305  -5.6305  -5.1518  -5.1518
    -4.4706  -4.4706  -0.0966  -0.0966   0.4425   0.4425   1.0772   1.0772
     1.5545   1.5545   1.9899   1.9899   2.4479   2.4479   2.8500   2.8500
     2.9554   2.9554   3.2629   3.2629   3.5934   3.5934   3.9648   3.9648
     4.0772   4.0772   6.4069   6.4069   6.5414   6.5414   7.0751   7.0751
     7.5788   7.5788

          k =-1.0162-0.2579 0.0000 ( 36506 PWs)   bands (ev):

   -44.1486 -44.1486 -22.2500 -22.2500 -22.2390 -22.2390 -22.0809 -22.0809
    -6.7704  -6.7491  -6.3129  -6.3020  -6.3010  -6.2980  -5.1695  -5.1690
    -4.4344  -4.4041  -0.1598  -0.1414   0.1445   0.1659   1.0118   1.0192
     1.4666   1.6576   2.2061   2.3665   2.3931   2.4209   2.7878   2.8382
     2.8457   2.8883   3.1754   3.2279   3.2932   3.3481   3.4315   3.6078
     3.9862   4.2407   6.6905   6.7586   6.8312   6.8474   7.1286   7.2249
     7.2256   7.2995

          k =-1.0162-0.2579 0.1485 ( 36506 PWs)   bands (ev):

   -44.1486 -44.1486 -22.2500 -22.2500 -22.2390 -22.2390 -22.0809 -22.0809
    -6.7651  -6.7497  -6.3506  -6.3434  -6.2642  -6.2598  -5.1680  -5.1677
    -4.4321  -4.4107  -0.2509  -0.2452   0.3275   0.3357   1.0075   1.0163
     1.4586   1.5891   2.0814   2.2193   2.3337   2.3912   2.6366   2.6599
     2.9232   3.0211   3.1125   3.2156   3.5043   3.5465   3.5818   3.6918
     4.1102   4.2595   6.3084   6.3306   6.5945   6.6719   7.2380   7.2442
     7.4593   7.5304

          k =-1.0162-0.2579-0.2971 ( 36528 PWs)   bands (ev):

   -44.1486 -44.1486 -22.2500 -22.2500 -22.2390 -22.2390 -22.0809 -22.0809
    -6.7550  -6.7550  -6.3657  -6.3657  -6.2455  -6.2455  -5.1664  -5.1664
    -4.4235  -4.4235  -0.3084  -0.3084   0.4975   0.4975   0.9818   0.9818
     1.5013   1.5013   1.9621   1.9621   2.3415   2.3415   2.7557   2.7557
     2.8044   2.8044   3.2050   3.2050   3.6257   3.6257   3.7723   3.7723
     4.3139   4.3139   5.9646   5.9646   6.5351   6.5351   7.2531   7.2531
     7.6000   7.6001

          k = 0.5081 0.0000 0.0000 ( 36503 PWs)   bands (ev):

   -44.1499 -44.1499 -22.2568 -22.2568 -22.2068 -22.2068 -22.0846 -22.0845
    -7.7984  -7.6198  -6.9165  -6.7986  -5.8383  -5.2305  -4.9857  -4.6135
    -4.5815  -4.4932  -0.0318   0.4074   0.7136   0.9382   1.1574   1.2677
     1.6288   1.7055   1.7350   2.0834   2.1365   2.4142   2.5921   3.4284
     3.4884   3.5830   3.5920   3.6756   3.7764   3.9029   3.9878   4.2748
     4.3050   4.8309   5.8918   6.1586   6.3313   6.5753   6.6003   7.1085
     7.4297   7.5744

          k = 0.5081 0.0000 0.1485 ( 36453 PWs)   bands (ev):

   -44.1499 -44.1499 -22.2568 -22.2568 -22.2068 -22.2068 -22.0846 -22.0845
    -7.7766  -7.6518  -6.8928  -6.8112  -5.7806  -5.3956  -4.8505  -4.6132
    -4.5952  -4.5066   0.0237   0.3674   0.7920   0.8320   1.1627   1.2367
     1.3641   1.5631   2.0014   2.1051   2.2899   2.4964   2.8781   3.3680
     3.4765   3.4837   3.5539   3.7280   3.7471   3.8536   3.8563   4.2974
     4.3205   4.4434   6.2447   6.3207   6.4642   6.5680   6.6761   6.9777
     7.2948   7.5450

          k = 0.5081 0.0000-0.2971 ( 36452 PWs)   bands (ev):

   -44.1499 -44.1499 -22.2568 -22.2568 -22.2068 -22.2068 -22.0845 -22.0845
    -7.7191  -7.7191  -6.8467  -6.8467  -5.6196  -5.6196  -4.7017  -4.7017
    -4.5490  -4.5490   0.1856   0.1856   0.9434   0.9434   0.9875   0.9875
     1.4353   1.4353   2.0595   2.0595   2.6366   2.6366   3.1923   3.1923
     3.3953   3.3953   3.5907   3.5907   3.7967   3.7967   3.9123   3.9123
     4.3619   4.3619   6.5045   6.5045   6.5376   6.5376   6.9102   6.9102
     7.2628   7.2628

          k = 0.7622 0.0645 0.0000 ( 36505 PWs)   bands (ev):

   -44.1490 -44.1490 -22.2521 -22.2521 -22.2296 -22.2296 -22.0820 -22.0819
    -7.2253  -7.0369  -6.7696  -6.6537  -5.7319  -5.5446  -5.1525  -5.1286
    -4.4813  -4.4664  -0.2484   0.0234   0.1746   0.8949   0.9456   1.3167
     1.4606   1.5576   1.9793   2.1576   2.2631   2.2812   2.4020   2.7899
     2.9931   3.2734   3.3646   3.4538   3.5895   3.7002   3.7009   3.7251
     3.8423   4.6102   6.2061   6.4444   6.6115   6.9501   6.9907   7.0077
     7.4034   7.6738

          k = 0.7622 0.0645 0.1485 ( 36509 PWs)   bands (ev):

   -44.1490 -44.1490 -22.2521 -22.2521 -22.2296 -22.2296 -22.0820 -22.0819
    -7.2043  -7.0753  -6.7428  -6.6651  -5.7011  -5.5676  -5.1535  -5.1382
    -4.4774  -4.4671  -0.2120   0.0835   0.1424   0.7616   0.9704   1.2630
     1.4713   1.5916   1.9710   1.9818   2.1489   2.5668   2.7103   2.8899
     2.9496   3.0277   3.3110   3.3484   3.5526   3.5903   3.7398   3.9644
     3.9738   4.4545   6.0711   6.4309   6.7794   6.9108   7.0194   7.1384
     7.1716   7.6973

          k = 0.7622 0.0645-0.2971 ( 36472 PWs)   bands (ev):

   -44.1490 -44.1490 -22.2521 -22.2521 -22.2296 -22.2296 -22.0819 -22.0819
    -7.1472  -7.1472  -6.6975  -6.6975  -5.6306  -5.6306  -5.1510  -5.1510
    -4.4707  -4.4707  -0.0885  -0.0885   0.4361   0.4361   1.0958   1.0958
     1.5499   1.5499   1.9365   1.9365   2.4479   2.4479   2.8550   2.8550
     2.9323   2.9323   3.3108   3.3108   3.5902   3.5902   3.9867   3.9867
     4.0490   4.0490   6.4351   6.4351   6.5395   6.5395   7.0459   7.0459
     7.6059   7.6059

          k = 1.0162 0.1290 0.0000 ( 36514 PWs)   bands (ev):

   -44.1486 -44.1486 -22.2500 -22.2500 -22.2390 -22.2390 -22.0809 -22.0809
    -6.7704  -6.7491  -6.3128  -6.3020  -6.3011  -6.2979  -5.1695  -5.1690
    -4.4344  -4.4041  -0.1654  -0.1357   0.1421   0.1684   1.0033   1.0285
     1.4738   1.6471   2.2019   2.3734   2.3994   2.4127   2.7629   2.8498
     2.8806   2.8810   3.1895   3.1966   3.2900   3.3334   3.4675   3.5966
     3.9685   4.2582   6.6841   6.7688   6.8127   6.8659   7.1544   7.2247
     7.2277   7.2768

          k = 1.0162 0.1290 0.1485 ( 36524 PWs)   bands (ev):

   -44.1486 -44.1486 -22.2500 -22.2500 -22.2390 -22.2390 -22.0809 -22.0809
    -6.7651  -6.7497  -6.3505  -6.3434  -6.2642  -6.2599  -5.1680  -5.1677
    -4.4321  -4.4107  -0.2534  -0.2431   0.3287   0.3351   1.0051   1.0188
     1.4652   1.5823   2.0886   2.2029   2.3373   2.3921   2.6199   2.6834
     2.9170   3.0333   3.1135   3.2077   3.5042   3.5183   3.6200   3.6838
     4.0893   4.2789   6.3044   6.3404   6.5908   6.6741   7.2399   7.2443
     7.4697   7.5210

          k = 1.0162 0.1290-0.2971 ( 36516 PWs)   bands (ev):

   -44.1486 -44.1486 -22.2500 -22.2500 -22.2390 -22.2390 -22.0809 -22.0809
    -6.7550  -6.7550  -6.3656  -6.3656  -6.2455  -6.2455  -5.1664  -5.1664
    -4.4235  -4.4235  -0.3085  -0.3085   0.4978   0.4978   0.9816   0.9816
     1.5025   1.5025   1.9626   1.9626   2.3362   2.3362   2.7333   2.7333
     2.8367   2.8367   3.1972   3.1972   3.6273   3.6273   3.7718   3.7718
     4.3146   4.3146   5.9676   5.9676   6.5343   6.5343   7.2538   7.2538
     7.6008   7.6008

          k =-0.7622-0.3224 0.0000 ( 36511 PWs)   bands (ev):

   -44.1490 -44.1490 -22.2521 -22.2521 -22.2296 -22.2296 -22.0820 -22.0819
    -7.2140  -7.0350  -6.7768  -6.6602  -5.7306  -5.5493  -5.1554  -5.1277
    -4.5014  -4.4447  -0.2684   0.0283   0.1540   0.8824   0.9175   1.2877
     1.5029   1.6660   2.0932   2.1867   2.2097   2.2428   2.4702   2.8515
     3.0109   3.2043   3.3443   3.4417   3.4969   3.6218   3.6920   3.7018
     4.0057   4.5530   6.2119   6.5088   6.5703   6.8726   7.0165   7.0996
     7.3772   7.5716

          k =-0.7622-0.3224 0.1485 ( 36492 PWs)   bands (ev):

   -44.1490 -44.1490 -22.2521 -22.2521 -22.2296 -22.2296 -22.0820 -22.0819
    -7.1938  -7.0710  -6.7513  -6.6726  -5.6999  -5.5704  -5.1562  -5.1384
    -4.4915  -4.4519  -0.2317   0.0635   0.1509   0.7853   0.9124   1.2330
     1.5246   1.6099   2.0200   2.1107   2.1876   2.5663   2.6806   2.9240
     2.9602   3.0465   3.2409   3.3186   3.4752   3.5808   3.7764   3.8792
     4.0403   4.4718   6.0150   6.4928   6.7277   6.9076   7.0436   7.1194
     7.2222   7.6070

          k =-0.7622-0.3224-0.2971 ( 36508 PWs)   bands (ev):

   -44.1490 -44.1490 -22.2521 -22.2521 -22.2296 -22.2296 -22.0819 -22.0819
    -7.1392  -7.1392  -6.7065  -6.7065  -5.6304  -5.6304  -5.1529  -5.1529
    -4.4704  -4.4704  -0.1077  -0.1077   0.4512   0.4512   1.0549   1.0549
     1.5621   1.5621   2.0561   2.0561   2.4590   2.4590   2.8449   2.8449
     2.9871   2.9871   3.1970   3.1970   3.5907   3.5907   3.9208   3.9208
     4.1295   4.1295   6.3723   6.3723   6.5412   6.5412   7.1213   7.1213
     7.5247   7.5247

          k =-0.5081-0.2579 0.0000 ( 36480 PWs)   bands (ev):

   -44.1499 -44.1499 -22.2568 -22.2568 -22.2068 -22.2068 -22.0846 -22.0845
    -7.7923  -7.6185  -6.9162  -6.8010  -5.8484  -5.2329  -4.9937  -4.6304
    -4.5606  -4.4949  -0.0465   0.4307   0.7107   0.8974   1.1702   1.4142
     1.6440   1.7549   1.7800   2.0631   2.1414   2.4503   2.5781   3.3840
     3.4594   3.5359   3.5636   3.6973   3.7301   3.7693   4.0612   4.1475
     4.2912   4.8631   5.8725   6.2086   6.2586   6.7048   6.7785   6.9807
     7.4080   7.4897

          k =-0.5081-0.2579 0.1485 ( 36485 PWs)   bands (ev):

   -44.1499 -44.1499 -22.2568 -22.2568 -22.2068 -22.2068 -22.0846 -22.0845
    -7.7710  -7.6494  -6.8938  -6.8139  -5.7890  -5.3986  -4.8613  -4.6112
    -4.5997  -4.4991   0.0128   0.3874   0.7771   0.8184   1.1455   1.2797
     1.4992   1.6476   1.9910   2.0636   2.3317   2.5340   2.8721   3.2941
     3.4428   3.5008   3.5237   3.6605   3.6932   3.7775   3.9480   4.1795
     4.2678   4.4936   6.2752   6.2933   6.4101   6.7056   6.8167   6.8706
     7.2449   7.4904

          k =-0.5081-0.2579-0.2971 ( 36478 PWs)   bands (ev):

   -44.1499 -44.1499 -22.2568 -22.2568 -22.2068 -22.2068 -22.0845 -22.0845
    -7.7148  -7.7148  -6.8494  -6.8494  -5.6248  -5.6248  -4.7125  -4.7125
    -4.5413  -4.5413   0.1858   0.1858   0.9472   0.9472   0.9754   0.9754
     1.5581   1.5581   2.0381   2.0381   2.6798   2.6798   3.1546   3.1546
     3.3687   3.3687   3.5711   3.5711   3.7105   3.7105   3.9557   3.9557
     4.3056   4.3056   6.4585   6.4585   6.6506   6.6506   6.8520   6.8520
     7.2638   7.2638

          k =-0.2541-0.1934 0.0000 ( 36410 PWs)   bands (ev):

   -44.1508 -44.1508 -22.2615 -22.2615 -22.1840 -22.1839 -22.0872 -22.0871
    -8.1656  -7.9861  -7.0655  -6.9223  -6.0162  -5.3563  -4.7692  -4.7188
    -4.6707  -3.9465   0.3039   0.8255   0.9230   1.0268   1.2758   1.4570
     1.4875   1.5734   1.7828   2.5685   2.6216   3.1800   3.3667   3.6754
     3.7316   3.7577   3.8876   3.9059   3.9191   4.2019   4.3045   4.3782
     4.4036   4.6568   6.0103   6.0286   6.2341   6.4141   6.4761   6.7731
     7.0219   7.1676

          k =-0.2541-0.1934 0.1485 ( 36427 PWs)   bands (ev):

   -44.1508 -44.1508 -22.2615 -22.2615 -22.1840 -22.1839 -22.0872 -22.0871
    -8.1435  -8.0177  -7.0376  -6.9379  -5.9535  -5.5211  -4.7495  -4.6872
    -4.5428  -4.0293   0.3719   0.7468   0.9031   1.0679   1.1515   1.2544
     1.5578   1.7226   2.0901   2.5688   2.6094   2.9403   3.4365   3.4827
     3.5343   3.7870   3.8636   3.9102   4.0300   4.1967   4.3810   4.4055
     4.6271   4.7754   5.8983   6.0279   6.1260   6.2914   6.3401   6.8200
     7.1726   7.2262

          k =-0.2541-0.1934-0.2971 ( 36422 PWs)   bands (ev):

   -44.1508 -44.1508 -22.2615 -22.2615 -22.1839 -22.1839 -22.0871 -22.0871
    -8.0851  -8.0851  -6.9819  -6.9819  -5.7739  -5.7739  -4.7179  -4.7179
    -4.2526  -4.2526   0.5534   0.5534   0.9433   0.9433   1.1610   1.1610
     1.7242   1.7242   2.4875   2.4875   2.6473   2.6473   3.2924   3.2924
     3.7128   3.7128   3.8518   3.8518   4.1562   4.1562   4.3964   4.3964
     4.9214   4.9214   5.7670   5.7670   6.1903   6.1903   6.5122   6.5122
     7.3419   7.3419

          k = 0.0000-0.1290 0.0000 ( 36417 PWs)   bands (ev):

   -44.1511 -44.1511 -22.2635 -22.2634 -22.1744 -22.1744 -22.0883 -22.0881
    -8.2939  -8.1113  -7.1303  -6.9716  -6.0703  -5.4036  -4.7911  -4.7289
    -4.6695  -3.7578   0.2186   0.8072   0.8802   1.1774   1.2691   1.5648
     1.7556   1.8559   2.2566   2.8247   2.9195   2.9730   3.2282   3.4358
     3.8497   3.9508   3.9724   4.0131   4.2866   4.3748   4.4404   4.6662
     4.7467   5.2364   5.6425   5.9085   5.9242   5.9477   6.1041   6.7130
     7.1182   7.2262

          k = 0.0000-0.1290 0.1485 ( 36419 PWs)   bands (ev):

   -44.1511 -44.1511 -22.2635 -22.2634 -22.1744 -22.1744 -22.0883 -22.0881
    -8.2714  -8.1435  -7.0993  -6.9887  -6.0082  -5.5707  -4.7804  -4.7341
    -4.4778  -3.8643   0.2983   0.8888   0.9288   0.9474   1.1446   1.7687
     1.8394   1.8537   2.0139   2.8413   2.9080   3.0133   3.3585   3.5242
     3.8202   3.9460   3.9979   4.0085   4.2894   4.3293   4.4431   4.6848
     4.7378   4.8265   5.8539   5.8848   5.9091   6.2394   6.2749   6.5763
     6.9249   7.0609

          k = 0.0000-0.1290-0.2971 ( 36464 PWs)   bands (ev):

   -44.1511 -44.1511 -22.2634 -22.2634 -22.1744 -22.1744 -22.0882 -22.0882
    -8.2121  -8.2121  -7.0373  -7.0373  -5.8281  -5.8281  -4.7570  -4.7570
    -4.1397  -4.1397   0.5332   0.5332   1.0113   1.0113   1.3550   1.3550
     1.8023   1.8023   2.5486   2.5486   2.8771   2.8771   3.6338   3.6338
     3.8697   3.8697   4.1270   4.1270   4.2070   4.2070   4.4387   4.4387
     4.7145   4.7145   5.8852   5.8852   6.2232   6.2232   6.5629   6.5629
     6.7222   6.7222

          k = 1.0162 0.0000 0.0000 ( 36499 PWs)   bands (ev):

   -44.1486 -44.1486 -22.2500 -22.2500 -22.2390 -22.2390 -22.0809 -22.0809
    -6.7704  -6.7491  -6.3127  -6.3021  -6.3012  -6.2979  -5.1695  -5.1690
    -4.4344  -4.4041  -0.1694  -0.1316   0.1400   0.1705   0.9989   1.0336
     1.4820   1.6356   2.1980   2.3864   2.3983   2.4056   2.7504   2.8631
     2.8638   2.9129   3.1605   3.2254   3.2794   3.3107   3.5074   3.5777
     3.9530   4.2738   6.6789   6.7779   6.8025   6.8759   7.2041   7.2250
     7.2293   7.2303

          k = 1.0162 0.0000 0.1485 ( 36485 PWs)   bands (ev):

   -44.1486 -44.1486 -22.2500 -22.2500 -22.2390 -22.2390 -22.0809 -22.0809
    -6.7651  -6.7497  -6.3505  -6.3435  -6.2642  -6.2599  -5.1680  -5.1677
    -4.4321  -4.4107  -0.2550  -0.2416   0.3302   0.3340   1.0034   1.0205
     1.4727   1.5745   2.0977   2.1852   2.3423   2.3905   2.6134   2.6955
     2.9145   3.0427   3.1167   3.1980   3.4921   3.5168   3.6542   3.6651
     4.0719   4.2948   6.3024   6.3482   6.5873   6.6761   7.2425   7.2437
     7.4898   7.5018

          k = 1.0162 0.0000-0.2971 ( 36514 PWs)   bands (ev):

   -44.1486 -44.1486 -22.2500 -22.2500 -22.2390 -22.2390 -22.0809 -22.0809
    -6.7550  -6.7550  -6.3656  -6.3656  -6.2455  -6.2455  -5.1664  -5.1664
    -4.4235  -4.4235  -0.3086  -0.3086   0.4981   0.4981   0.9813   0.9813
     1.5037   1.5037   1.9631   1.9631   2.3310   2.3310   2.7204   2.7204
     2.8599   2.8599   3.1890   3.1890   3.6288   3.6288   3.7714   3.7714
     4.3152   4.3152   5.9706   5.9706   6.5334   6.5334   7.2546   7.2546
     7.6014   7.6014

          k = 1.2703 0.0645 0.0000 ( 36468 PWs)   bands (ev):

   -44.1490 -44.1490 -22.2521 -22.2521 -22.2296 -22.2296 -22.0820 -22.0819
    -7.2092  -7.0341  -6.7803  -6.6625  -5.7301  -5.5512  -5.1565  -5.1274
    -4.5059  -4.4394  -0.2765   0.0309   0.1448   0.8628   0.9268   1.2777
     1.5038   1.7179   2.1705   2.2029   2.2232   2.2242   2.4146   2.8818
     3.0123   3.1946   3.3732   3.4279   3.5079   3.5757   3.6241   3.6775
     4.1038   4.5166   6.2144   6.5174   6.5863   6.8141   7.0461   7.1666
     7.3451   7.5518

          k = 1.2703 0.0645 0.1485 ( 36490 PWs)   bands (ev):

   -44.1490 -44.1490 -22.2521 -22.2521 -22.2296 -22.2296 -22.0820 -22.0819
    -7.1893  -7.0691  -6.7553  -6.6754  -5.6993  -5.5716  -5.1572  -5.1386
    -4.4947  -4.4482  -0.2397   0.0564   0.1531   0.7950   0.8937   1.2217
     1.5341   1.6262   2.0331   2.1622   2.2275   2.5714   2.6326   2.9467
     2.9581   3.0786   3.2256   3.2849   3.4855   3.5338   3.7736   3.8398
     4.0912   4.4762   5.9945   6.5240   6.6979   6.9040   7.0252   7.1820
     7.2240   7.5539

          k = 1.2703 0.0645-0.2971 ( 36480 PWs)   bands (ev):

   -44.1490 -44.1490 -22.2521 -22.2521 -22.2296 -22.2296 -22.0819 -22.0819
    -7.1357  -7.1357  -6.7104  -6.7104  -5.6304  -5.6304  -5.1537  -5.1537
    -4.4703  -4.4703  -0.1154  -0.1154   0.4569   0.4569   1.0415   1.0415
     1.5682   1.5682   2.0947   2.0947   2.4785   2.4785   2.8430   2.8430
     3.0056   3.0056   3.1527   3.1527   3.5838   3.5838   3.8872   3.8872
     4.1689   4.1689   6.3506   6.3506   6.5400   6.5400   7.1585   7.1585
     7.4725   7.4726

          k =-0.5081-0.3869 0.0000 ( 36463 PWs)   bands (ev):

   -44.1499 -44.1499 -22.2568 -22.2568 -22.2068 -22.2068 -22.0846 -22.0845
    -7.7879  -7.6176  -6.9167  -6.8020  -5.8557  -5.2344  -4.9993  -4.6367
    -4.5513  -4.4961  -0.0565   0.4465   0.7074   0.8768   1.1792   1.5400
     1.6547   1.7800   1.8133   2.0416   2.1636   2.4495   2.5647   3.2877
     3.4917   3.5394   3.5709   3.5763   3.7265   3.7559   4.0193   4.1447
     4.2784   4.8820   5.8620   6.1313   6.3242   6.8074   6.8940   6.9139
     7.3678   7.4537

          k =-0.5081-0.3869 0.1485 ( 36477 PWs)   bands (ev):

   -44.1499 -44.1499 -22.2568 -22.2568 -22.2068 -22.2068 -22.0846 -22.0845
    -7.7669  -7.6477  -6.8951  -6.8153  -5.7951  -5.4006  -4.8688  -4.6093
    -4.6031  -4.4943   0.0054   0.4011   0.7737   0.8013   1.1442   1.3012
     1.6219   1.7210   1.9580   2.0348   2.3824   2.5294   2.8646   3.2188
     3.4217   3.5001   3.5185   3.5819   3.6946   3.7487   3.9885   4.1261
     4.2269   4.5200   6.2234   6.3308   6.3897   6.7719   6.8104   6.9582
     7.1885   7.4714

          k =-0.5081-0.3869-0.2971 ( 36492 PWs)   bands (ev):

   -44.1499 -44.1499 -22.2568 -22.2568 -22.2068 -22.2068 -22.0845 -22.0845
    -7.7117  -7.7117  -6.8513  -6.8513  -5.6284  -5.6284  -4.7197  -4.7197
    -4.5363  -4.5363   0.1858   0.1858   0.9507   0.9507   0.9673   0.9673
     1.6683   1.6683   2.0039   2.0039   2.7280   2.7280   3.0804   3.0804
     3.3617   3.3617   3.5449   3.5449   3.6823   3.6823   3.9754   3.9754
     4.2748   4.2748   6.4276   6.4276   6.6998   6.6998   6.8303   6.8304
     7.2862   7.2863

          k =-0.2541-0.3224 0.0000 ( 36485 PWs)   bands (ev):

   -44.1508 -44.1508 -22.2615 -22.2615 -22.1840 -22.1839 -22.0872 -22.0871
    -8.1614  -7.9853  -7.0613  -6.9220  -6.0324  -5.3622  -4.7933  -4.7102
    -4.6595  -3.9475   0.3290   0.8167   0.9312   1.1349   1.3147   1.4730
     1.5238   1.6509   1.8135   2.5035   2.5783   3.1987   3.4538   3.5724
     3.6232   3.6666   3.7546   3.9086   3.9496   4.1345   4.1823   4.2968
     4.3607   4.7087   6.0755   6.1032   6.2954   6.4326   6.5075   6.8468
     6.9434   7.0866

          k =-0.2541-0.3224 0.1485 ( 36445 PWs)   bands (ev):

   -44.1508 -44.1508 -22.2615 -22.2615 -22.1840 -22.1839 -22.0872 -22.0871
    -8.1395  -8.0161  -7.0347  -6.9377  -5.9675  -5.5276  -4.7663  -4.6801
    -4.5387  -4.0295   0.3973   0.7477   0.9090   1.1470   1.2201   1.3122
     1.5728   1.7470   2.1451   2.5064   2.5692   2.9588   3.4282   3.4902
     3.5869   3.6091   3.6642   3.9086   3.9681   4.1355   4.3026   4.3546
     4.6123   4.8124   5.9030   6.0349   6.1514   6.3535   6.4447   6.7902
     7.1499   7.2114

          k =-0.2541-0.3224-0.2971 ( 36442 PWs)   bands (ev):

   -44.1508 -44.1508 -22.2615 -22.2615 -22.1839 -22.1839 -22.0871 -22.0871
    -8.0821  -8.0821  -6.9810  -6.9810  -5.7837  -5.7837  -4.7225  -4.7225
    -4.2510  -4.2510   0.5739   0.5739   0.9549   0.9549   1.2513   1.2513
     1.7423   1.7423   2.4791   2.4791   2.6452   2.6452   3.2921   3.2921
     3.5861   3.5861   3.8128   3.8128   4.0961   4.0961   4.3347   4.3347
     4.9427   4.9427   5.7436   5.7436   6.2179   6.2179   6.5654   6.5654
     7.3331   7.3331

          k = 0.0000-0.2579 0.0000 ( 36445 PWs)   bands (ev):

   -44.1511 -44.1511 -22.2635 -22.2634 -22.1744 -22.1744 -22.0883 -22.0881
    -8.2901  -8.1105  -7.1244  -6.9710  -6.0880  -5.4109  -4.8105  -4.7183
    -4.6652  -3.7586   0.2484   0.8150   0.9881   1.2307   1.2955   1.6353
     1.7550   1.8549   2.2500   2.8421   2.9283   2.9824   3.2210   3.5430
     3.6101   3.6877   3.9229   3.9671   4.1598   4.3132   4.3755   4.6341
     4.7435   5.2055   5.6871   5.9932   6.0100   6.0144   6.1237   6.7498
     7.0905   7.1183

          k = 0.0000-0.2579 0.1485 ( 36452 PWs)   bands (ev):

   -44.1511 -44.1511 -22.2635 -22.2634 -22.1744 -22.1744 -22.0883 -22.0881
    -8.2679  -8.1420  -7.0949  -6.9880  -6.0239  -5.5786  -4.7960  -4.7257
    -4.4760  -3.8646   0.3292   0.9338   0.9526   1.0317   1.2028   1.7681
     1.8385   1.8647   2.0572   2.8575   2.9180   3.0247   3.3285   3.5557
     3.6804   3.7058   3.9120   3.9713   4.2053   4.2780   4.3239   4.6665
     4.7341   4.8217   5.9057   5.9445   5.9849   6.2552   6.2923   6.6018
     6.9280   6.9636

          k = 0.0000-0.2579-0.2971 ( 36454 PWs)   bands (ev):

   -44.1511 -44.1511 -22.2634 -22.2634 -22.1744 -22.1744 -22.0882 -22.0882
    -8.2094  -8.2094  -7.0353  -7.0353  -5.8395  -5.8395  -4.7607  -4.7607
    -4.1389  -4.1389   0.5684   0.5684   1.0908   1.0908   1.3682   1.3682
     1.8016   1.8016   2.5806   2.5806   2.8903   2.8903   3.5350   3.5350
     3.7817   3.7817   4.1003   4.1003   4.1050   4.1050   4.3773   4.3773
     4.7075   4.7075   5.9401   5.9401   6.2585   6.2585   6.5719   6.5719
     6.6801   6.6802

          k = 1.5243 0.0000 0.0000 ( 36439 PWs)   bands (ev):

   -44.1499 -44.1499 -22.2568 -22.2568 -22.2068 -22.2068 -22.0846 -22.0845
    -7.7861  -7.6173  -6.9171  -6.8022  -5.8588  -5.2351  -5.0017  -4.6387
    -4.5480  -4.4966  -0.0606   0.4529   0.7056   0.8694   1.1830   1.6087
     1.6737   1.7567   1.8275   2.0306   2.1972   2.4271   2.5582   3.2544
     3.5061   3.5096   3.5614   3.5743   3.7053   3.7763   3.9609   4.1730
     4.2727   4.8888   5.8581   6.0965   6.3558   6.8542   6.8582   6.9793
     7.3337   7.4797

          k = 1.5243 0.0000 0.1485 ( 36476 PWs)   bands (ev):

   -44.1499 -44.1499 -22.2568 -22.2568 -22.2068 -22.2068 -22.0846 -22.0845
    -7.7652  -7.6470  -6.8957  -6.8157  -5.7976  -5.4014  -4.8719  -4.6080
    -4.6049  -4.4924   0.0023   0.4066   0.7775   0.7889   1.1448   1.3093
     1.7181   1.7239   1.9412   2.0098   2.4542   2.4746   2.8590   3.1943
     3.3872   3.5018   3.5249   3.5669   3.7006   3.7333   3.9750   4.1383
     4.2010   4.5306   6.1974   6.3479   6.3851   6.7465   6.8432   7.0320
     7.1454   7.4946

          k = 1.5243 0.0000-0.2971 ( 36508 PWs)   bands (ev):

   -44.1499 -44.1499 -22.2568 -22.2568 -22.2068 -22.2068 -22.0845 -22.0845
    -7.7104  -7.7104  -6.8521  -6.8521  -5.6299  -5.6299  -4.7226  -4.7226
    -4.5343  -4.5343   0.1857   0.1857   0.9533   0.9533   0.9628   0.9628
     1.7286   1.7286   1.9765   1.9765   2.7587   2.7587   3.0306   3.0306
     3.3625   3.3625   3.5345   3.5345   3.6752   3.6752   3.9788   3.9788
     4.2663   4.2663   6.4151   6.4151   6.7031   6.7031   6.8340   6.8340
     7.3058   7.3059

          k =-0.2541-0.4514 0.0000 ( 36444 PWs)   bands (ev):

   -44.1508 -44.1508 -22.2615 -22.2615 -22.1840 -22.1839 -22.0872 -22.0871
    -8.1583  -7.9846  -7.0587  -6.9211  -6.0440  -5.3663  -4.8075  -4.7034
    -4.6552  -3.9482   0.3417   0.8122   0.9356   1.2492   1.3180   1.4879
     1.5495   1.7303   1.8480   2.4342   2.5077   3.2493   3.4222   3.4667
     3.5161   3.6544   3.8228   3.9115   3.9610   4.0238   4.0995   4.2383
     4.3479   4.7419   6.1008   6.1823   6.3015   6.4714   6.5301   6.8586
     6.8933   7.0478

          k =-0.2541-0.4514 0.1485 ( 36461 PWs)   bands (ev):

   -44.1508 -44.1508 -22.2615 -22.2615 -22.1840 -22.1839 -22.0872 -22.0871
    -8.1367  -8.0149  -7.0330  -6.9371  -5.9776  -5.5322  -4.7766  -4.6763
    -4.5361  -4.0296   0.4105   0.7485   0.9115   1.1839   1.3042   1.3635
     1.5903   1.7760   2.2021   2.4399   2.4942   2.9918   3.3629   3.4126
     3.5211   3.5580   3.7514   3.9027   3.9389   4.0084   4.2671   4.3318
     4.6054   4.8363   5.9056   6.0337   6.1820   6.3755   6.5117   6.7477
     7.1555   7.1996

          k =-0.2541-0.4514-0.2971 ( 36490 PWs)   bands (ev):

   -44.1508 -44.1508 -22.2615 -22.2615 -22.1839 -22.1839 -22.0871 -22.0871
    -8.0800  -8.0800  -6.9804  -6.9804  -5.7906  -5.7906  -4.7257  -4.7257
    -4.2498  -4.2498   0.5847   0.5847   0.9604   0.9604   1.3347   1.3347
     1.7628   1.7628   2.4505   2.4505   2.6460   2.6460   3.2713   3.2713
     3.4641   3.4641   3.8790   3.8790   4.0149   4.0149   4.3026   4.3026
     4.9568   4.9568   5.7299   5.7299   6.2181   6.2181   6.6017   6.6017
     7.3313   7.3313

          k = 0.0000-0.3869 0.0000 ( 36477 PWs)   bands (ev):

   -44.1511 -44.1511 -22.2635 -22.2634 -22.1744 -22.1744 -22.0883 -22.0881
    -8.2863  -8.1097  -7.1191  -6.9696  -6.1061  -5.4181  -4.8274  -4.7050
    -4.6660  -3.7594   0.2694   0.8244   1.1329   1.2941   1.3198   1.7108
     1.7544   1.8540   2.2448   2.8610   2.9366   3.0028   3.1715   3.2963
     3.4723   3.6997   3.8945   3.9814   4.0235   4.1423   4.3762   4.6023
     4.7405   5.1850   5.7319   6.0497   6.0656   6.0965   6.1436   6.7594
     6.9677   7.1181

          k = 0.0000-0.3869 0.1485 ( 36452 PWs)   bands (ev):

   -44.1511 -44.1511 -22.2635 -22.2634 -22.1744 -22.1744 -22.0883 -22.0881
    -8.2643  -8.1405  -7.0909  -6.9866  -6.0398  -5.5865  -4.8089  -4.7199
    -4.4745  -3.8648   0.3507   0.9590   0.9704   1.1787   1.2749   1.7675
     1.8376   1.8766   2.1055   2.8749   2.9279   3.0217   3.2252   3.3382
     3.4908   3.7881   3.9409   3.9442   4.0810   4.1639   4.2652   4.6494
     4.7306   4.8205   5.9600   5.9939   6.0284   6.2713   6.3041   6.5998
     6.8750   6.9310

          k = 0.0000-0.3869-0.2971 ( 36454 PWs)   bands (ev):

   -44.1511 -44.1511 -22.2635 -22.2635 -22.1744 -22.1744 -22.0882 -22.0882
    -8.2067  -8.2067  -7.0334  -7.0334  -5.8508  -5.8508  -4.7645  -4.7645
    -4.1380  -4.1380   0.5930   0.5930   1.1988   1.1988   1.3864   1.3864
     1.8009   1.8009   2.6149   2.6149   2.9039   2.9039   3.2749   3.2749
     3.8349   3.8349   4.0211   4.0211   4.0824   4.0824   4.3194   4.3194
     4.7009   4.7009   5.9687   5.9687   6.2948   6.2948   6.5812   6.5812
     6.6266   6.6266

          k =-2.0325 0.0000 0.0000 ( 36452 PWs)   bands (ev):

   -44.1511 -44.1511 -22.2635 -22.2634 -22.1744 -22.1744 -22.0883 -22.0881
    -8.2847  -8.1094  -7.1171  -6.9687  -6.1137  -5.4210  -4.8339  -4.6976
    -4.6688  -3.7598   0.2756   0.8287   1.2590   1.2640   1.3292   1.7542
     1.7554   1.8536   2.2431   2.8693   2.9398   3.0150   3.0932   3.1795
     3.4184   3.8654   3.8826   3.8944   3.9879   4.0415   4.3764   4.5891
     4.7394   5.1779   5.7503   6.0681   6.0826   6.1398   6.1519   6.7394
     6.9317   7.1180

          k =-2.0325 0.0000 0.1485 ( 36456 PWs)   bands (ev):

   -44.1511 -44.1511 -22.2635 -22.2634 -22.1744 -22.1744 -22.0883 -22.0881
    -8.2628  -8.1399  -7.0894  -6.9859  -6.0465  -5.5897  -4.8138  -4.7178
    -4.4740  -3.8649   0.3568   0.9732   0.9742   1.2706   1.2927   1.7672
     1.8373   1.8821   2.1308   2.8825   2.9318   2.9973   3.1133   3.2768
     3.4484   3.9001   3.9328   3.9545   4.0153   4.0521   4.2596   4.6427
     4.7293   4.8202   5.9819   6.0190   6.0381   6.2781   6.3081   6.5837
     6.8466   6.9323

          k =-2.0325 0.0000-0.2971 ( 36460 PWs)   bands (ev):

   -44.1511 -44.1511 -22.2635 -22.2635 -22.1744 -22.1744 -22.0882 -22.0882
    -8.2056  -8.2056  -7.0325  -7.0325  -5.8554  -5.8554  -4.7661  -4.7661
    -4.1376  -4.1376   0.6004   0.6004   1.2521   1.2521   1.3980   1.3980
     1.8006   1.8006   2.6299   2.6299   2.9097   2.9097   3.1524   3.1524
     3.8866   3.8866   3.9679   3.9679   4.0728   4.0728   4.2979   4.2979
     4.6983   4.6983   5.9758   5.9758   6.3100   6.3100   6.5851   6.5851
     6.6017   6.6017

     the Fermi energy is     5.2796 ev

!    total energy              =   -4240.93162741 Ry

     total all-electron energy =   -150287.625322 Ry
     estimated scf accuracy    <          2.5E-11 Ry
     smearing contrib. (-TS)   =       0.00000358 Ry
     internal energy E=F+TS    =   -4240.93163099 Ry

     The total energy is F=E-TS. E is the sum of the following terms:
     one-electron contribution =    -168.69641696 Ry
     hartree contribution      =     117.79751185 Ry
     xc contribution           =    -201.62161433 Ry
     ewald contribution        =    -220.86936492 Ry
     one-center paw contrib.   =   -3767.54174663 Ry

     convergence has been achieved in  17 iterations

     Forces acting on atoms (cartesian axes, Ry/au):

     atom    1 type  1   force =     0.00000000    0.01883484    0.00000000
     atom    2 type  1   force =     0.00000000   -0.01883484    0.00000000
     atom    3 type  2   force =     0.00000000   -0.00020983    0.00000000
     atom    4 type  2   force =     0.00000000    0.00020983    0.00000000
     atom    5 type  2   force =    -0.00000000   -0.00436947   -0.00274550
     atom    6 type  2   force =     0.00000000    0.00436947    0.00274550
     atom    7 type  2   force =     0.00000000   -0.00436947    0.00274550
     atom    8 type  2   force =     0.00000000    0.00436947   -0.00274550
     atom    9 type  2   force =     0.00000000   -0.03453043   -0.04002405
     atom   10 type  2   force =     0.00000000    0.03453043    0.04002405
     atom   11 type  2   force =    -0.00000000   -0.03453043    0.04002405
     atom   12 type  2   force =     0.00000000    0.03453043   -0.04002405

     Total force =     0.109514     Total SCF correction =     0.000007


     Computing stress (Cartesian axis) and pressure

          total   stress  (Ry/bohr**3)                   (kbar)     P=        9.49
   0.00007437   0.00000000   0.00000000           10.94        0.00        0.00
  -0.00000000   0.00003498   0.00000000           -0.00        5.15        0.00
   0.00000000   0.00000000   0.00008419            0.00        0.00       12.38

 
     init_run     :     36.11s CPU     37.35s WALL (       1 calls)
     electrons    :   1625.05s CPU   1641.84s WALL (       1 calls)
     forces       :      6.95s CPU      7.20s WALL (       1 calls)
     stress       :     41.92s CPU     42.53s WALL (       1 calls)

     Called by init_run:
     wfcinit      :     31.06s CPU     31.34s WALL (       1 calls)
     potinit      :      1.56s CPU      1.61s WALL (       1 calls)
     hinit0       :      1.74s CPU      2.35s WALL (       1 calls)

     Called by electrons:
     c_bands      :   1301.74s CPU   1308.50s WALL (      18 calls)
     sum_band     :    290.62s CPU    296.47s WALL (      18 calls)
     v_of_rho     :      8.32s CPU      8.92s WALL (      18 calls)
     newd         :     17.57s CPU     21.34s WALL (      18 calls)
     PAW_pot      :      6.33s CPU      6.33s WALL (      18 calls)
     mix_rho      :      1.58s CPU      1.62s WALL (      18 calls)

     Called by c_bands:
     init_us_2    :     13.61s CPU     13.67s WALL (    2457 calls)
     cegterg      :   1225.96s CPU   1232.06s WALL (    1134 calls)

     Called by *egterg:
     cdiaghg      :     26.27s CPU     26.40s WALL (    7547 calls)
     h_psi        :   1062.53s CPU   1068.42s WALL (    7673 calls)
     s_psi        :     47.72s CPU     47.80s WALL (    7673 calls)
     g_psi        :      2.06s CPU      2.08s WALL (    6476 calls)

     Called by h_psi:
     h_psi:calbec :     40.71s CPU     40.79s WALL (    7673 calls)
     vloc_psi     :    970.33s CPU    975.99s WALL (    7673 calls)
     add_vuspsi   :     47.73s CPU     47.81s WALL (    7673 calls)

     General routines
     calbec       :     53.77s CPU     53.88s WALL (    9122 calls)
     fft          :      7.54s CPU      8.32s WALL (     258 calls)
     ffts         :      0.20s CPU      0.20s WALL (      36 calls)
     fftw         :    979.70s CPU    985.34s WALL (  402482 calls)
     interpolate  :      0.65s CPU      0.65s WALL (      18 calls)
 
     Parallel routines
     fft_scatt_xy :    261.57s CPU    263.13s WALL (  402776 calls)
     fft_scatt_yz :    193.31s CPU    194.85s WALL (  402776 calls)
 
     PWSCF        :  28m30.30s CPU  28m56.90s WALL

 
   This run was terminated on:  15:15:16  19Nov2021            

=------------------------------------------------------------------------------=
   JOB DONE.
=------------------------------------------------------------------------------=
