
     Program PWSCF v.6.7MaX starts on 19Nov2021 at 14:46:17 

     This program is part of the open-source Quantum ESPRESSO suite
     for quantum simulation of materials; please cite
         "P. Giannozzi et al., J. Phys.:Condens. Matter 21 395502 (2009);
         "P. Giannozzi et al., J. Phys.:Condens. Matter 29 465901 (2017);
          URL http://www.quantum-espresso.org", 
     in publications or presentations arising from this work. More details at
     http://www.quantum-espresso.org/quote

     Parallel version (MPI), running on    10 processors

     MPI processes distributed on     1 nodes
     R & G space division:  proc/nbgrp/npool/nimage =      10
     Waiting for input...
     Reading input from standard input

     Current dimensions of program PWSCF are:
     Max number of different atomic species (ntypx) = 10
     Max number of k-points (npk) =  40000
     Max angular momentum in pseudopotentials (lmaxx) =  3
     file Zr.pbe-spn-kjpaw_psl.1.0.0.UPF: wavefunction(s)  4S 4P renormalized
     file Te.pbe-n-kjpaw_psl.1.0.0.UPF: wavefunction(s)  5S 5P renormalized

     Subspace diagonalization in iterative solution of the eigenvalue problem:
     a serial algorithm will be used

     Message from routine setup:
     using ibrav=0 with symmetry is DISCOURAGED, use correct ibrav instead
 
     Parallelization info
     --------------------
     sticks:   dense  smooth     PW     G-vecs:    dense   smooth      PW
     Min         734     293     87               115340    29174    4753
     Max         735     295     88               115345    29176    4760
     Sum        7345    2937    873              1153415   291749   47557
 


     bravais-lattice index     =            0
     lattice parameter (alat)  =      15.5510  a.u.
     unit-cell volume          =    3018.5011 (a.u.)^3
     number of atoms/cell      =           12
     number of atomic types    =            2
     number of electrons       =        84.00
     number of Kohn-Sham states=           50
     kinetic-energy cutoff     =      80.0000  Ry
     charge density cutoff     =     800.0000  Ry
     scf convergence threshold =      1.0E-10
     mixing beta               =       0.7000
     number of iterations used =            8  plain     mixing
     Exchange-correlation= SLA  PW   PBX  PBC
                           (   1   4   3   4   0   0   0)

     celldm(1)=  15.551040  celldm(2)=   0.000000  celldm(3)=   0.000000
     celldm(4)=   0.000000  celldm(5)=   0.000000  celldm(6)=   0.000000

     crystal axes: (cart. coord. in units of alat)
               a(1) = (   0.246007  -0.969268   0.000000 )  
               a(2) = (   0.246007   0.969268   0.000000 )  
               a(3) = (   0.000000   0.000000   1.683031 )  

     reciprocal axes: (cart. coord. in units 2 pi/alat)
               b(1) = (  2.032465 -0.515853  0.000000 )  
               b(2) = (  2.032465  0.515853  0.000000 )  
               b(3) = (  0.000000  0.000000  0.594166 )  


     PseudoPot. # 1 for Zr read from file:
     pseudo/Zr.pbe-spn-kjpaw_psl.1.0.0.UPF
     MD5 check sum: 02112c41713a0468aff2bb39ef194e36
     Pseudo is Projector augmented-wave + core cor, Zval = 12.0
     Generated using &quot;atomic&quot; code by A. Dal Corso  v.6.2.2
     Shape of augmentation charge: PSQ
     Using radial grid of 1225 points,  6 beta functions with: 
                l(1) =   0
                l(2) =   0
                l(3) =   1
                l(4) =   1
                l(5) =   2
                l(6) =   2
     Q(r) pseudized with 0 coefficients 


     PseudoPot. # 2 for Te read from file:
     pseudo/Te.pbe-n-kjpaw_psl.1.0.0.UPF
     MD5 check sum: 66247bff2bd9dbf220fbb0bf5ab56e9d
     Pseudo is Projector augmented-wave + core cor, Zval =  6.0
     Generated using &quot;atomic&quot; code by A. Dal Corso  v.6.3
     Shape of augmentation charge: PSQ
     Using radial grid of 1245 points,  6 beta functions with: 
                l(1) =   0
                l(2) =   0
                l(3) =   1
                l(4) =   1
                l(5) =   2
                l(6) =   2
     Q(r) pseudized with 0 coefficients 


     atomic species   valence    mass     pseudopotential
        Zr            12.00    91.22000     Zr( 1.00)
        Te             6.00   127.60000     Te( 1.00)

      8 Sym. Ops., with inversion, found ( 4 have fractional translation)



   Cartesian axes

     site n.     atom                  positions (alat units)
         1           Zr  tau(   1) = (   0.0000000   0.5992845   0.4207578  )
         2           Zr  tau(   2) = (   0.2460067   0.3699836   1.2622733  )
         3           Te  tau(   3) = (   0.2460067   0.3341213   0.4207578  )
         4           Te  tau(   4) = (   0.0000000   0.6351468   1.2622733  )
         5           Te  tau(   5) = (   0.2460067   0.8127040   0.2540280  )
         6           Te  tau(   6) = (   0.0000000   0.1565641   1.4290030  )
         7           Te  tau(   7) = (   0.2460067   0.8127040   0.5874875  )
         8           Te  tau(   8) = (   0.0000000   0.1565641   1.0955436  )
         9           Te  tau(   9) = (   0.0000000   0.4259687   0.7414505  )
        10           Te  tau(  10) = (   0.2460067   0.5432994   0.9415806  )
        11           Te  tau(  11) = (   0.0000000   0.4259687   0.1000650  )
        12           Te  tau(  12) = (   0.2460067   0.5432994   1.5829660  )

     number of k points=    63  Methfessel-Paxton smearing, width (Ry)=  0.0030
                       cart. coord. in units 2pi/alat
        k(    1) = (   0.0000000   0.0000000   0.0000000), wk =   0.0078125
        k(    2) = (   0.0000000   0.0000000   0.1485415), wk =   0.0156250
        k(    3) = (   0.0000000   0.0000000  -0.2970830), wk =   0.0078125
        k(    4) = (   0.2540581   0.0644816   0.0000000), wk =   0.0312500
        k(    5) = (   0.2540581   0.0644816   0.1485415), wk =   0.0625000
        k(    6) = (   0.2540581   0.0644816  -0.2970830), wk =   0.0312500
        k(    7) = (   0.5081162   0.1289633   0.0000000), wk =   0.0312500
        k(    8) = (   0.5081162   0.1289633   0.1485415), wk =   0.0625000
        k(    9) = (   0.5081162   0.1289633  -0.2970830), wk =   0.0312500
        k(   10) = (   0.7621743   0.1934449   0.0000000), wk =   0.0312500
        k(   11) = (   0.7621743   0.1934449   0.1485415), wk =   0.0625000
        k(   12) = (   0.7621743   0.1934449  -0.2970830), wk =   0.0312500
        k(   13) = (  -1.0162324  -0.2579266   0.0000000), wk =   0.0156250
        k(   14) = (  -1.0162324  -0.2579266   0.1485415), wk =   0.0312500
        k(   15) = (  -1.0162324  -0.2579266  -0.2970830), wk =   0.0156250
        k(   16) = (   0.5081162   0.0000000   0.0000000), wk =   0.0156250
        k(   17) = (   0.5081162   0.0000000   0.1485415), wk =   0.0312500
        k(   18) = (   0.5081162   0.0000000  -0.2970830), wk =   0.0156250
        k(   19) = (   0.7621743   0.0644816   0.0000000), wk =   0.0312500
        k(   20) = (   0.7621743   0.0644816   0.1485415), wk =   0.0625000
        k(   21) = (   0.7621743   0.0644816  -0.2970830), wk =   0.0312500
        k(   22) = (   1.0162324   0.1289633   0.0000000), wk =   0.0312500
        k(   23) = (   1.0162324   0.1289633   0.1485415), wk =   0.0625000
        k(   24) = (   1.0162324   0.1289633  -0.2970830), wk =   0.0312500
        k(   25) = (  -0.7621743  -0.3224082   0.0000000), wk =   0.0312500
        k(   26) = (  -0.7621743  -0.3224082   0.1485415), wk =   0.0625000
        k(   27) = (  -0.7621743  -0.3224082  -0.2970830), wk =   0.0312500
        k(   28) = (  -0.5081162  -0.2579266   0.0000000), wk =   0.0312500
        k(   29) = (  -0.5081162  -0.2579266   0.1485415), wk =   0.0625000
        k(   30) = (  -0.5081162  -0.2579266  -0.2970830), wk =   0.0312500
        k(   31) = (  -0.2540581  -0.1934449   0.0000000), wk =   0.0312500
        k(   32) = (  -0.2540581  -0.1934449   0.1485415), wk =   0.0625000
        k(   33) = (  -0.2540581  -0.1934449  -0.2970830), wk =   0.0312500
        k(   34) = (   0.0000000  -0.1289633   0.0000000), wk =   0.0156250
        k(   35) = (   0.0000000  -0.1289633   0.1485415), wk =   0.0312500
        k(   36) = (   0.0000000  -0.1289633  -0.2970830), wk =   0.0156250
        k(   37) = (   1.0162324   0.0000000   0.0000000), wk =   0.0156250
        k(   38) = (   1.0162324   0.0000000   0.1485415), wk =   0.0312500
        k(   39) = (   1.0162324   0.0000000  -0.2970830), wk =   0.0156250
        k(   40) = (   1.2702905   0.0644816   0.0000000), wk =   0.0312500
        k(   41) = (   1.2702905   0.0644816   0.1485415), wk =   0.0625000
        k(   42) = (   1.2702905   0.0644816  -0.2970830), wk =   0.0312500
        k(   43) = (  -0.5081162  -0.3868899   0.0000000), wk =   0.0312500
        k(   44) = (  -0.5081162  -0.3868899   0.1485415), wk =   0.0625000
        k(   45) = (  -0.5081162  -0.3868899  -0.2970830), wk =   0.0312500
        k(   46) = (  -0.2540581  -0.3224082   0.0000000), wk =   0.0312500
        k(   47) = (  -0.2540581  -0.3224082   0.1485415), wk =   0.0625000
        k(   48) = (  -0.2540581  -0.3224082  -0.2970830), wk =   0.0312500
        k(   49) = (   0.0000000  -0.2579266   0.0000000), wk =   0.0156250
        k(   50) = (   0.0000000  -0.2579266   0.1485415), wk =   0.0312500
        k(   51) = (   0.0000000  -0.2579266  -0.2970830), wk =   0.0156250
        k(   52) = (   1.5243485   0.0000000   0.0000000), wk =   0.0156250
        k(   53) = (   1.5243485   0.0000000   0.1485415), wk =   0.0312500
        k(   54) = (   1.5243485   0.0000000  -0.2970830), wk =   0.0156250
        k(   55) = (  -0.2540581  -0.4513715   0.0000000), wk =   0.0312500
        k(   56) = (  -0.2540581  -0.4513715   0.1485415), wk =   0.0625000
        k(   57) = (  -0.2540581  -0.4513715  -0.2970830), wk =   0.0312500
        k(   58) = (   0.0000000  -0.3868899   0.0000000), wk =   0.0156250
        k(   59) = (   0.0000000  -0.3868899   0.1485415), wk =   0.0312500
        k(   60) = (   0.0000000  -0.3868899  -0.2970830), wk =   0.0156250
        k(   61) = (  -2.0324647   0.0000000   0.0000000), wk =   0.0078125
        k(   62) = (  -2.0324647   0.0000000   0.1485415), wk =   0.0156250
        k(   63) = (  -2.0324647   0.0000000  -0.2970830), wk =   0.0078125

     Dense  grid:  1153415 G-vectors     FFT dimensions: ( 144, 144, 240)

     Smooth grid:   291749 G-vectors     FFT dimensions: (  90,  90, 150)

     Estimated max dynamical RAM per process >     657.19 MB

     Estimated total dynamical RAM >       6.42 GB

     Initial potential from superposition of free atoms

     starting charge   83.99353, renormalised to   84.00000
     Starting wfcs are   66 randomized atomic wfcs
     Checking if some PAW data can be deallocated... 

     total cpu time spent up to now is       44.3 secs

     Self-consistent Calculation

     iteration #  1     ecut=    80.00 Ry     beta= 0.70
     Davidson diagonalization with overlap
     ethr =  1.00E-02,  avg # of iterations =  2.2

     Threshold (ethr) on eigenvalues was too large:
     Diagonalizing with lowered threshold

     Davidson diagonalization with overlap
     ethr =  4.77E-04,  avg # of iterations =  3.9

     total cpu time spent up to now is      202.5 secs

     total energy              =   -4240.69116714 Ry
     estimated scf accuracy    <       0.45640757 Ry

     iteration #  2     ecut=    80.00 Ry     beta= 0.70
     Davidson diagonalization with overlap
     ethr =  5.43E-04,  avg # of iterations =  8.4

     total cpu time spent up to now is      316.8 secs

     total energy              =   -4240.58303458 Ry
     estimated scf accuracy    <       2.07351529 Ry

     iteration #  3     ecut=    80.00 Ry     beta= 0.70
     Davidson diagonalization with overlap
     ethr =  5.43E-04,  avg # of iterations =  5.3

     total cpu time spent up to now is      411.0 secs

     total energy              =   -4240.91264549 Ry
     estimated scf accuracy    <       0.00773859 Ry

     iteration #  4     ecut=    80.00 Ry     beta= 0.70
     Davidson diagonalization with overlap
     c_bands:  1 eigenvalues not converged
     c_bands:  1 eigenvalues not converged
     c_bands:  3 eigenvalues not converged
     c_bands:  1 eigenvalues not converged
     c_bands:  1 eigenvalues not converged
     c_bands:  3 eigenvalues not converged
     c_bands:  2 eigenvalues not converged
     c_bands:  1 eigenvalues not converged
     c_bands:  2 eigenvalues not converged
     c_bands:  1 eigenvalues not converged
     c_bands:  1 eigenvalues not converged
     c_bands:  1 eigenvalues not converged
     c_bands:  1 eigenvalues not converged
     c_bands:  1 eigenvalues not converged
     c_bands:  2 eigenvalues not converged
     c_bands:  1 eigenvalues not converged
     ethr =  9.21E-06,  avg # of iterations = 17.3

     total cpu time spent up to now is      585.1 secs

     total energy              =   -4240.92163817 Ry
     estimated scf accuracy    <       0.03416406 Ry

     iteration #  5     ecut=    80.00 Ry     beta= 0.70
     Davidson diagonalization with overlap
     ethr =  9.21E-06,  avg # of iterations =  6.8

     total cpu time spent up to now is      677.6 secs

     total energy              =   -4240.92334703 Ry
     estimated scf accuracy    <       0.00575349 Ry

     iteration #  6     ecut=    80.00 Ry     beta= 0.70
     Davidson diagonalization with overlap
     ethr =  6.85E-06,  avg # of iterations =  3.7

     total cpu time spent up to now is      755.0 secs

     total energy              =   -4240.92386673 Ry
     estimated scf accuracy    <       0.00086045 Ry

     iteration #  7     ecut=    80.00 Ry     beta= 0.70
     Davidson diagonalization with overlap
     ethr =  1.02E-06,  avg # of iterations =  8.5

     total cpu time spent up to now is      867.5 secs

     total energy              =   -4240.92425864 Ry
     estimated scf accuracy    <       0.00079296 Ry

     iteration #  8     ecut=    80.00 Ry     beta= 0.70
     Davidson diagonalization with overlap
     ethr =  9.44E-07,  avg # of iterations =  2.1

     total cpu time spent up to now is      936.7 secs

     total energy              =   -4240.92428745 Ry
     estimated scf accuracy    <       0.00010801 Ry

     iteration #  9     ecut=    80.00 Ry     beta= 0.70
     Davidson diagonalization with overlap
     ethr =  1.29E-07,  avg # of iterations =  6.2

     total cpu time spent up to now is     1028.2 secs

     total energy              =   -4240.92432437 Ry
     estimated scf accuracy    <       0.00001661 Ry

     iteration # 10     ecut=    80.00 Ry     beta= 0.70
     Davidson diagonalization with overlap
     ethr =  1.98E-08,  avg # of iterations =  2.9

     total cpu time spent up to now is     1101.4 secs

     total energy              =   -4240.92432667 Ry
     estimated scf accuracy    <       0.00000109 Ry

     iteration # 11     ecut=    80.00 Ry     beta= 0.70
     Davidson diagonalization with overlap
     ethr =  1.30E-09,  avg # of iterations =  8.2

     total cpu time spent up to now is     1212.5 secs

     total energy              =   -4240.92432772 Ry
     estimated scf accuracy    <       0.00000059 Ry

     iteration # 12     ecut=    80.00 Ry     beta= 0.70
     Davidson diagonalization with overlap
     ethr =  7.01E-10,  avg # of iterations =  2.6

     total cpu time spent up to now is     1283.5 secs

     total energy              =   -4240.92432776 Ry
     estimated scf accuracy    <       0.00000008 Ry

     iteration # 13     ecut=    80.00 Ry     beta= 0.70
     Davidson diagonalization with overlap
     ethr =  9.93E-11,  avg # of iterations =  6.2

     total cpu time spent up to now is     1376.9 secs

     total energy              =   -4240.92432780 Ry
     estimated scf accuracy    <       0.00000001 Ry

     iteration # 14     ecut=    80.00 Ry     beta= 0.70
     Davidson diagonalization with overlap
     ethr =  1.69E-11,  avg # of iterations =  2.6

     total cpu time spent up to now is     1448.4 secs

     total energy              =   -4240.92432780 Ry
     estimated scf accuracy    <          6.5E-09 Ry

     iteration # 15     ecut=    80.00 Ry     beta= 0.70
     Davidson diagonalization with overlap
     ethr =  7.70E-12,  avg # of iterations =  5.0

     total cpu time spent up to now is     1529.4 secs

     End of self-consistent calculation

          k = 0.0000 0.0000 0.0000 ( 36359 PWs)   bands (ev):

   -44.1549 -44.1549 -22.2654 -22.2654 -22.1767 -22.1767 -22.0931 -22.0929
    -8.3719  -8.2048  -7.1346  -6.9844  -6.0306  -5.3952  -4.7739  -4.7251
    -4.6330  -3.7433   0.1830   0.8186   0.8484   1.1715   1.2262   1.5289
     1.6612   1.7465   2.2573   2.8268   2.9164   2.9615   3.2019   3.4153
     3.8983   3.9830   4.1163   4.1244   4.3392   4.3918   4.5096   4.6634
     4.7593   5.2033   5.6193   5.8422   5.8494   5.9377   6.1346   6.6611
     7.1426   7.2813

          k = 0.0000 0.0000 0.1485 ( 36415 PWs)   bands (ev):

   -44.1549 -44.1549 -22.2654 -22.2654 -22.1767 -22.1767 -22.0930 -22.0929
    -8.3509  -8.2335  -7.1061  -7.0011  -5.9710  -5.5522  -4.7634  -4.7315
    -4.4485  -3.8484   0.2628   0.8413   0.9167   0.9520   1.1294   1.6725
     1.7327   1.8423   1.9899   2.8420   2.9051   2.9872   3.3631   3.4988
     3.8326   4.0278   4.0898   4.1352   4.3075   4.3891   4.5039   4.6872
     4.7493   4.8030   5.8169   5.8481   5.8502   6.2428   6.2658   6.5353
     6.9446   7.0871

          k = 0.0000 0.0000-0.2971 ( 36410 PWs)   bands (ev):

   -44.1549 -44.1549 -22.2654 -22.2654 -22.1767 -22.1767 -22.0930 -22.0930
    -8.2960  -8.2960  -7.0478  -7.0478  -5.7982  -5.7982  -4.7470  -4.7470
    -4.1191  -4.1191   0.4964   0.4964   0.9932   0.9932   1.3560   1.3560
     1.7014   1.7014   2.5188   2.5188   2.8755   2.8755   3.6403   3.6403
     3.9299   3.9299   4.1510   4.1510   4.2788   4.2788   4.4776   4.4776
     4.7228   4.7228   5.8365   5.8365   6.1981   6.1981   6.5832   6.5832
     6.7040   6.7040

          k = 0.2541 0.0645 0.0000 ( 36396 PWs)   bands (ev):

   -44.1545 -44.1545 -22.2634 -22.2634 -22.1862 -22.1862 -22.0920 -22.0918
    -8.2436  -8.0783  -7.0714  -6.9346  -5.9733  -5.3467  -4.7324  -4.6977
    -4.6766  -3.9385   0.2578   0.7563   0.9259   0.9709   1.2287   1.3828
     1.4197   1.5420   1.7554   2.6029   2.6373   3.1655   3.3318   3.6906
     3.7774   3.8067   3.9029   3.9373   4.0954   4.2840   4.3425   4.4462
     4.4791   4.6282   5.9709   5.9839   6.1425   6.3640   6.4278   6.7391
     7.0620   7.2517

          k = 0.2541 0.0645 0.1485 ( 36423 PWs)   bands (ev):

   -44.1545 -44.1545 -22.2634 -22.2634 -22.1862 -22.1862 -22.0920 -22.0919
    -8.2228  -8.1068  -7.0454  -6.9498  -5.9137  -5.5016  -4.7246  -4.6869
    -4.5240  -4.0202   0.3261   0.6916   0.8818   1.0086   1.0904   1.2187
     1.4841   1.7099   2.0347   2.6056   2.6202   2.9327   3.4329   3.4626
     3.5155   3.8739   3.9809   4.0547   4.0781   4.2413   4.4312   4.4826
     4.6461   4.7380   5.8962   6.0139   6.1079   6.2048   6.2439   6.8365
     7.2119   7.2267

          k = 0.2541 0.0645-0.2971 ( 36436 PWs)   bands (ev):

   -44.1545 -44.1545 -22.2634 -22.2634 -22.1862 -22.1862 -22.0919 -22.0919
    -8.1685  -8.1685  -6.9923  -6.9923  -5.7427  -5.7427  -4.7058  -4.7058
    -4.2399  -4.2399   0.5081   0.5081   0.8904   0.8904   1.1176   1.1176
     1.6750   1.6750   2.4812   2.4812   2.6452   2.6452   3.2996   3.2996
     3.6998   3.6998   4.0298   4.0298   4.1910   4.1910   4.4657   4.4657
     4.8902   4.8902   5.7838   5.7838   6.1294   6.1294   6.4918   6.4918
     7.3452   7.3452

          k = 0.5081 0.1290 0.0000 ( 36499 PWs)   bands (ev):

   -44.1537 -44.1537 -22.2587 -22.2587 -22.2090 -22.2090 -22.0894 -22.0893
    -7.8670  -7.7057  -6.9202  -6.8120  -5.8139  -5.2245  -4.9804  -4.6115
    -4.5646  -4.5036  -0.1035   0.3679   0.7256   0.8677   1.1613   1.3145
     1.6357   1.7151   1.7204   2.0728   2.1389   2.4492   2.6100   3.4428
     3.4527   3.5598   3.5822   3.7223   3.7612   3.8550   4.0193   4.2498
     4.2950   4.8156   5.9313   6.2013   6.3187   6.6132   6.6600   7.0878
     7.4141   7.5439

          k = 0.5081 0.1290 0.1485 ( 36476 PWs)   bands (ev):

   -44.1537 -44.1537 -22.2587 -22.2587 -22.2090 -22.2090 -22.0894 -22.0893
    -7.8468  -7.7337  -6.8995  -6.8241  -5.7577  -5.3835  -4.8507  -4.6077
    -4.5892  -4.5089  -0.0447   0.3169   0.7848   0.8108   1.1457   1.2388
     1.4033   1.5891   2.0005   2.0888   2.2900   2.5241   2.8889   3.3369
     3.4590   3.4955   3.5492   3.7145   3.7742   3.8040   3.8985   4.2668
     4.3074   4.4591   6.2740   6.3322   6.4566   6.6125   6.7267   6.9633
     7.2744   7.5271

          k = 0.5081 0.1290-0.2971 ( 36466 PWs)   bands (ev):

   -44.1537 -44.1537 -22.2587 -22.2587 -22.2090 -22.2090 -22.0894 -22.0894
    -7.7941  -7.7941  -6.8577  -6.8577  -5.6010  -5.6010  -4.7032  -4.7032
    -4.5440  -4.5440   0.1237   0.1237   0.9262   0.9262   0.9830   0.9830
     1.4751   1.4751   2.0554   2.0554   2.6386   2.6386   3.1875   3.1875
     3.3837   3.3837   3.5935   3.5935   3.7727   3.7727   3.9430   3.9430
     4.3515   4.3515   6.5040   6.5040   6.5740   6.5740   6.8962   6.8962
     7.2813   7.2813

          k = 0.7622 0.1934 0.0000 ( 36521 PWs)   bands (ev):

   -44.1528 -44.1528 -22.2540 -22.2540 -22.2317 -22.2317 -22.0868 -22.0868
    -7.2785  -7.1122  -6.7773  -6.6733  -5.7392  -5.5752  -5.1563  -5.1169
    -4.4833  -4.4446  -0.2973   0.0271   0.1137   0.8902   0.9066   1.3085
     1.4912   1.5946   2.0197   2.1440   2.2255   2.2868   2.4681   2.8171
     3.0164   3.2177   3.3556   3.4341   3.5294   3.6654   3.7142   3.7599
     3.8935   4.5945   6.2573   6.4925   6.6149   6.9663   6.9889   7.0412
     7.4043   7.6259

          k = 0.7622 0.1934 0.1485 ( 36503 PWs)   bands (ev):

   -44.1528 -44.1528 -22.2540 -22.2540 -22.2317 -22.2317 -22.0868 -22.0868
    -7.2590  -7.1438  -6.7558  -6.6846  -5.7116  -5.5947  -5.1552  -5.1287
    -4.4761  -4.4491  -0.2595   0.0271   0.1444   0.7571   0.9376   1.2529
     1.4994   1.5923   1.9932   2.0232   2.1779   2.5577   2.7129   2.9050
     2.9688   3.0168   3.2735   3.3350   3.5067   3.5968   3.7816   3.9298
     3.9946   4.4628   6.0989   6.4697   6.7758   6.9293   7.0514   7.1225
     7.2149   7.6722

          k = 0.7622 0.1934-0.2971 ( 36522 PWs)   bands (ev):

   -44.1528 -44.1528 -22.2540 -22.2540 -22.2317 -22.2317 -22.0868 -22.0868
    -7.2069  -7.2069  -6.7157  -6.7157  -5.6491  -5.6491  -5.1472  -5.1472
    -4.4613  -4.4613  -0.1377  -0.1377   0.4340   0.4340   1.0753   1.0753
     1.5532   1.5532   1.9837   1.9837   2.4583   2.4583   2.8538   2.8538
     2.9495   2.9495   3.2568   3.2568   3.5912   3.5912   3.9676   3.9676
     4.0886   4.0886   6.4438   6.4438   6.5552   6.5552   7.0845   7.0845
     7.5953   7.5953

          k =-1.0162-0.2579 0.0000 ( 36506 PWs)   bands (ev):

   -44.1524 -44.1524 -22.2520 -22.2520 -22.2411 -22.2411 -22.0857 -22.0857
    -6.7816  -6.7600  -6.3626  -6.3599  -6.3562  -6.3504  -5.1510  -5.1505
    -4.4248  -4.3939  -0.1792  -0.1614   0.1241   0.1453   1.0125   1.0195
     1.4666   1.6559   2.2003   2.3585   2.3877   2.4159   2.7815   2.8434
     2.8565   2.9039   3.1721   3.2200   3.2859   3.3412   3.4292   3.5974
     4.0135   4.2624   6.7070   6.7735   6.8721   6.8866   7.1382   7.2358
     7.2361   7.3123

          k =-1.0162-0.2579 0.1485 ( 36506 PWs)   bands (ev):

   -44.1524 -44.1524 -22.2520 -22.2520 -22.2411 -22.2411 -22.0857 -22.0857
    -6.7758  -6.7602  -6.4052  -6.3982  -6.3177  -6.3131  -5.1496  -5.1493
    -4.4222  -4.4005  -0.2687  -0.2631   0.3013   0.3097   1.0085   1.0164
     1.4580   1.5878   2.0896   2.2335   2.3262   2.3893   2.6278   2.6560
     2.9210   3.0126   3.1220   3.2215   3.4882   3.5400   3.5811   3.6806
     4.1291   4.2776   6.3501   6.3726   6.6091   6.6867   7.2495   7.2547
     7.4761   7.5470

          k =-1.0162-0.2579-0.2971 ( 36528 PWs)   bands (ev):

   -44.1524 -44.1524 -22.2520 -22.2520 -22.2411 -22.2411 -22.0857 -22.0857
    -6.7651  -6.7651  -6.4211  -6.4211  -6.2987  -6.2987  -5.1481  -5.1481
    -4.4134  -4.4134  -0.3254  -0.3254   0.4632   0.4632   0.9855   0.9855
     1.4990   1.4990   1.9845   1.9845   2.3361   2.3361   2.7517   2.7517
     2.7925   2.7925   3.2129   3.2129   3.6204   3.6204   3.7634   3.7634
     4.3186   4.3186   6.0180   6.0180   6.5483   6.5483   7.2630   7.2630
     7.6194   7.6194

          k = 0.5081 0.0000 0.0000 ( 36503 PWs)   bands (ev):

   -44.1537 -44.1537 -22.2587 -22.2587 -22.2090 -22.2090 -22.0894 -22.0893
    -7.8685  -7.7060  -6.9203  -6.8115  -5.8110  -5.2238  -4.9782  -4.6045
    -4.5728  -4.5031  -0.0993   0.3607   0.7273   0.8799   1.1577   1.2743
     1.6305   1.7023   1.7071   2.0800   2.1342   2.4383   2.6141   3.4345
     3.4702   3.5909   3.5949   3.7006   3.7744   3.9024   3.9982   4.2867
     4.2985   4.8044   5.9379   6.1765   6.3493   6.5771   6.6076   7.1270
     7.4183   7.5720

          k = 0.5081 0.0000 0.1485 ( 36453 PWs)   bands (ev):

   -44.1537 -44.1536 -22.2587 -22.2587 -22.2090 -22.2090 -22.0894 -22.0893
    -7.8483  -7.7343  -6.8993  -6.8235  -5.7552  -5.3825  -4.8477  -4.6081
    -4.5875  -4.5116  -0.0416   0.3114   0.8017   0.8020   1.1527   1.2252
     1.3651   1.5671   2.0002   2.1051   2.2737   2.5133   2.8911   3.3507
     3.4812   3.4832   3.5619   3.7493   3.7499   3.8592   3.8634   4.2977
     4.3303   4.4388   6.2599   6.3415   6.4752   6.5702   6.6884   6.9979
     7.2856   7.5463

          k = 0.5081 0.0000-0.2971 ( 36452 PWs)   bands (ev):

   -44.1536 -44.1536 -22.2587 -22.2587 -22.2090 -22.2090 -22.0894 -22.0894
    -7.7952  -7.7952  -6.8571  -6.8571  -5.5994  -5.5994  -4.7001  -4.7001
    -4.5463  -4.5463   0.1238   0.1238   0.9245   0.9245   0.9868   0.9868
     1.4419   1.4419   2.0602   2.0602   2.6274   2.6274   3.1948   3.1948
     3.3932   3.3932   3.5950   3.5950   3.8047   3.8047   3.9271   3.9271
     4.3685   4.3685   6.5166   6.5166   6.5397   6.5397   6.9139   6.9139
     7.2838   7.2838

          k = 0.7622 0.0645 0.0000 ( 36505 PWs)   bands (ev):

   -44.1528 -44.1528 -22.2540 -22.2540 -22.2317 -22.2317 -22.0868 -22.0868
    -7.2825  -7.1129  -6.7745  -6.6711  -5.7398  -5.5734  -5.1550  -5.1173
    -4.4717  -4.4568  -0.2891   0.0258   0.1213   0.8811   0.9358   1.3214
     1.4633   1.5554   1.9826   2.1307   2.2621   2.3052   2.4120   2.7929
     3.0078   3.2582   3.3613   3.4427   3.5964   3.6973   3.7148   3.7169
     3.8465   4.6133   6.2550   6.4617   6.6433   6.9626   7.0007   7.0206
     7.4089   7.6727

          k = 0.7622 0.0645 0.1485 ( 36509 PWs)   bands (ev):

   -44.1528 -44.1528 -22.2540 -22.2540 -22.2317 -22.2317 -22.0868 -22.0868
    -7.2627  -7.1453  -6.7527  -6.6820  -5.7122  -5.5936  -5.1541  -5.1286
    -4.4680  -4.4577  -0.2514   0.0354   0.1407   0.7475   0.9639   1.2650
     1.4729   1.5877   1.9688   1.9701   2.1737   2.5559   2.7158   2.8933
     2.9637   3.0187   3.3093   3.3380   3.5499   3.5864   3.7601   3.9641
     3.9717   4.4541   6.1232   6.4454   6.7951   6.9288   7.0274   7.1578
     7.1895   7.7041

          k = 0.7622 0.0645-0.2971 ( 36472 PWs)   bands (ev):

   -44.1528 -44.1528 -22.2540 -22.2540 -22.2317 -22.2317 -22.0868 -22.0868
    -7.2097  -7.2097  -6.7125  -6.7125  -5.6491  -5.6491  -5.1465  -5.1465
    -4.4615  -4.4615  -0.1298  -0.1298   0.4279   0.4279   1.0933   1.0933
     1.5489   1.5489   1.9306   1.9306   2.4613   2.4613   2.8588   2.8588
     2.9252   2.9252   3.3030   3.3030   3.5880   3.5880   3.9979   3.9979
     4.0504   4.0504   6.4727   6.4727   6.5526   6.5526   7.0557   7.0557
     7.6225   7.6226

          k = 1.0162 0.1290 0.0000 ( 36514 PWs)   bands (ev):

   -44.1524 -44.1524 -22.2520 -22.2520 -22.2411 -22.2411 -22.0857 -22.0857
    -6.7817  -6.7600  -6.3625  -6.3599  -6.3562  -6.3505  -5.1510  -5.1505
    -4.4248  -4.3939  -0.1848  -0.1557   0.1219   0.1476   1.0036   1.0291
     1.4739   1.6452   2.1959   2.3658   2.3952   2.4070   2.7583   2.8615
     2.8841   2.8957   3.1790   3.1935   3.2877   3.3262   3.4590   3.5894
     3.9954   4.2804   6.7004   6.7843   6.8520   6.9064   7.1645   7.2355
     7.2382   7.2886

          k = 1.0162 0.1290 0.1485 ( 36524 PWs)   bands (ev):

   -44.1524 -44.1524 -22.2520 -22.2520 -22.2411 -22.2411 -22.0857 -22.0857
    -6.7759  -6.7602  -6.4052  -6.3982  -6.3177  -6.3132  -5.1496  -5.1492
    -4.4222  -4.4005  -0.2712  -0.2609   0.3024   0.3090   1.0055   1.0195
     1.4647   1.5808   2.0956   2.2175   2.3300   2.3910   2.6159   2.6749
     2.9121   3.0255   3.1233   3.2144   3.4929   3.5088   3.6170   3.6731
     4.1086   4.2970   6.3466   6.3824   6.6053   6.6887   7.2511   7.2548
     7.4858   7.5378

          k = 1.0162 0.1290-0.2971 ( 36516 PWs)   bands (ev):

   -44.1524 -44.1524 -22.2520 -22.2520 -22.2411 -22.2411 -22.0857 -22.0857
    -6.7651  -6.7651  -6.4211  -6.4211  -6.2987  -6.2987  -5.1481  -5.1481
    -4.4134  -4.4134  -0.3255  -0.3255   0.4635   0.4635   0.9852   0.9852
     1.5002   1.5002   1.9848   1.9848   2.3315   2.3315   2.7287   2.7287
     2.8237   2.8237   3.2061   3.2061   3.6219   3.6219   3.7631   3.7631
     4.3193   4.3193   6.0211   6.0211   6.5473   6.5473   7.2637   7.2637
     7.6197   7.6197

          k =-0.7622-0.3224 0.0000 ( 36511 PWs)   bands (ev):

   -44.1528 -44.1528 -22.2540 -22.2540 -22.2317 -22.2317 -22.0868 -22.0868
    -7.2727  -7.1111  -6.7818  -6.6760  -5.7384  -5.5777  -5.1580  -5.1165
    -4.4921  -4.4349  -0.3086   0.0297   0.1023   0.8734   0.9030   1.2928
     1.5026   1.6662   2.0941   2.1657   2.2088   2.2591   2.4741   2.8549
     3.0244   3.1960   3.3437   3.4266   3.5019   3.6189   3.6963   3.6973
     4.0257   4.5607   6.2605   6.5312   6.5944   6.8870   7.0279   7.1108
     7.3867   7.5615

          k =-0.7622-0.3224 0.1485 ( 36492 PWs)   bands (ev):

   -44.1528 -44.1528 -22.2540 -22.2540 -22.2317 -22.2317 -22.0868 -22.0868
    -7.2537  -7.1416  -6.7607  -6.6880  -5.7108  -5.5962  -5.1567  -5.1288
    -4.4823  -4.4423  -0.2707   0.0163   0.1485   0.7704   0.9069   1.2359
     1.5241   1.6076   2.0238   2.1028   2.1933   2.5569   2.6839   2.9283
     2.9673   3.0419   3.2449   3.3083   3.4750   3.5783   3.7847   3.8794
     4.0557   4.4731   6.0671   6.5080   6.7419   6.9266   7.0574   7.1364
     7.2376   7.6061

          k =-0.7622-0.3224-0.2971 ( 36508 PWs)   bands (ev):

   -44.1528 -44.1528 -22.2540 -22.2540 -22.2317 -22.2317 -22.0868 -22.0868
    -7.2028  -7.2028  -6.7203  -6.7203  -5.6490  -5.6490  -5.1482  -5.1482
    -4.4612  -4.4612  -0.1486  -0.1486   0.4423   0.4423   1.0537   1.0537
     1.5606   1.5606   2.0503   2.0503   2.4641   2.4641   2.8489   2.8489
     2.9821   2.9821   3.1938   3.1938   3.5886   3.5886   3.9210   3.9210
     4.1461   4.1461   6.4090   6.4090   6.5551   6.5551   7.1298   7.1298
     7.5387   7.5391

          k =-0.5081-0.2579 0.0000 ( 36480 PWs)   bands (ev):

   -44.1537 -44.1536 -22.2587 -22.2587 -22.2090 -22.2090 -22.0894 -22.0893
    -7.8632  -7.7049  -6.9203  -6.8128  -5.8209  -5.2264  -4.9858  -4.6217
    -4.5515  -4.5049  -0.1135   0.3851   0.7217   0.8424   1.1700   1.4163
     1.6451   1.7466   1.7612   2.0597   2.1392   2.4722   2.5983   3.3770
     3.4670   3.5254   3.5744   3.6953   3.7498   3.7711   4.0771   4.1590
     4.2841   4.8398   5.9182   6.2291   6.2784   6.7056   6.7865   6.9974
     7.4000   7.4822

          k =-0.5081-0.2579 0.1485 ( 36485 PWs)   bands (ev):

   -44.1537 -44.1537 -22.2587 -22.2587 -22.2090 -22.2090 -22.0894 -22.0893
    -7.8433  -7.7323  -6.9002  -6.8252  -5.7636  -5.3858  -4.8579  -4.6066
    -4.5932  -4.5028  -0.0523   0.3299   0.7689   0.8070   1.1385   1.2647
     1.5013   1.6509   1.9888   2.0617   2.3225   2.5460   2.8823   3.2831
     3.4343   3.5043   3.5294   3.6684   3.7087   3.7796   3.9679   4.1875
     4.2712   4.4928   6.2971   6.3094   6.4242   6.7058   6.8276   6.8904
     7.2400   7.4871

          k =-0.5081-0.2579-0.2971 ( 36478 PWs)   bands (ev):

   -44.1537 -44.1537 -22.2587 -22.2587 -22.2090 -22.2090 -22.0894 -22.0894
    -7.7914  -7.7914  -6.8591  -6.8591  -5.6048  -5.6048  -4.7104  -4.7104
    -4.5390  -4.5390   0.1233   0.1233   0.9305   0.9305   0.9743   0.9743
     1.5633   1.5633   2.0376   2.0376   2.6721   2.6721   3.1504   3.1504
     3.3659   3.3659   3.5811   3.5811   3.7149   3.7149   3.9766   3.9766
     4.3134   4.3134   6.4724   6.4724   6.6517   6.6517   6.8567   6.8567
     7.2821   7.2821

          k =-0.2541-0.1934 0.0000 ( 36410 PWs)   bands (ev):

   -44.1545 -44.1545 -22.2634 -22.2634 -22.1862 -22.1862 -22.0920 -22.0918
    -8.2410  -8.0777  -7.0682  -6.9343  -5.9843  -5.3512  -4.7543  -4.6956
    -4.6598  -3.9392   0.2801   0.7487   0.9325   1.0326   1.2444   1.3996
     1.4452   1.5883   1.7729   2.5732   2.6272   3.1652   3.3847   3.6716
     3.7348   3.7630   3.8959   3.9201   3.9236   4.2071   4.2956   4.3916
     4.4242   4.6708   6.0295   6.0322   6.2279   6.3523   6.4516   6.7950
     7.0269   7.1785

          k =-0.2541-0.1934 0.1485 ( 36427 PWs)   bands (ev):

   -44.1545 -44.1545 -22.2634 -22.2634 -22.1862 -22.1862 -22.0920 -22.0919
    -8.2204  -8.1058  -7.0430  -6.9494  -5.9235  -5.5066  -4.7393  -4.6787
    -4.5212  -4.0203   0.3486   0.6914   0.8858   1.0722   1.1131   1.2518
     1.4943   1.7212   2.0701   2.5736   2.6157   2.9354   3.4427   3.4871
     3.5409   3.8021   3.8726   3.9116   4.0386   4.2067   4.3945   4.4244
     4.6115   4.7792   5.9056   6.0171   6.1291   6.2802   6.3182   6.8327
     7.1744   7.2191

          k =-0.2541-0.1934-0.2971 ( 36422 PWs)   bands (ev):

   -44.1545 -44.1545 -22.2634 -22.2634 -22.1862 -22.1862 -22.0919 -22.0919
    -8.1667  -8.1667  -6.9913  -6.9913  -5.7498  -5.7498  -4.7088  -4.7088
    -4.2389  -4.2389   0.5261   0.5261   0.9000   0.9000   1.1652   1.1652
     1.6850   1.6850   2.4855   2.4855   2.6454   2.6454   3.3022   3.3022
     3.7262   3.7262   3.8567   3.8567   4.1661   4.1661   4.4119   4.4119
     4.9070   4.9070   5.7639   5.7639   6.1894   6.1894   6.5157   6.5157
     7.3353   7.3353

          k = 0.0000-0.1290 0.0000 ( 36417 PWs)   bands (ev):

   -44.1549 -44.1549 -22.2654 -22.2654 -22.1767 -22.1767 -22.0931 -22.0929
    -8.3705  -8.2045  -7.1322  -6.9840  -6.0377  -5.3985  -4.7829  -4.7195
    -4.6313  -3.7436   0.1973   0.8211   0.8890   1.1832   1.2378   1.5624
     1.6609   1.7461   2.2539   2.8337   2.9204   2.9619   3.2016   3.4541
     3.8810   3.9715   3.9874   4.0132   4.2863   4.3921   4.4643   4.6498
     4.7579   5.1853   5.6371   5.8860   5.9053   5.9636   6.1427   6.6805
     7.1427   7.2225

          k = 0.0000-0.1290 0.1485 ( 36419 PWs)   bands (ev):

   -44.1549 -44.1549 -22.2654 -22.2654 -22.1767 -22.1767 -22.0930 -22.0929
    -8.3496  -8.2330  -7.1042  -7.0006  -5.9774  -5.5557  -4.7717  -4.7259
    -4.4479  -3.8485   0.2778   0.8745   0.9314   0.9584   1.1510   1.6723
     1.7324   1.8474   2.0068   2.8485   2.9095   2.9923   3.3485   3.5392
     3.8399   3.9594   4.0125   4.0168   4.3028   4.3343   4.4619   4.6793
     4.7477   4.7968   5.8450   5.8755   5.8984   6.2507   6.2724   6.5524
     6.9459   7.0452

          k = 0.0000-0.1290-0.2971 ( 36464 PWs)   bands (ev):

   -44.1549 -44.1549 -22.2654 -22.2654 -22.1767 -22.1767 -22.0930 -22.0930
    -8.2950  -8.2950  -7.0468  -7.0468  -5.8030  -5.8030  -4.7484  -4.7484
    -4.1189  -4.1189   0.5137   0.5137   1.0192   1.0192   1.3602   1.3602
     1.7011   1.7011   2.5318   2.5318   2.8809   2.8809   3.6511   3.6511
     3.8712   3.8712   4.1419   4.1419   4.1938   4.1938   4.4521   4.4521
     4.7196   4.7196   5.8746   5.8746   6.2127   6.2127   6.5870   6.5870
     6.6892   6.6892

          k = 1.0162 0.0000 0.0000 ( 36499 PWs)   bands (ev):

   -44.1524 -44.1524 -22.2520 -22.2520 -22.2411 -22.2411 -22.0857 -22.0857
    -6.7817  -6.7600  -6.3624  -6.3600  -6.3562  -6.3506  -5.1510  -5.1505
    -4.4248  -4.3939  -0.1887  -0.1517   0.1200   0.1496   0.9991   1.0343
     1.4824   1.6334   2.1919   2.3802   2.3910   2.4024   2.7456   2.8756
     2.8781   2.9162   3.1474   3.2233   3.2804   3.3026   3.4907   3.5772
     3.9795   4.2964   6.6950   6.7940   6.8414   6.9168   7.2170   7.2357
     7.2387   7.2397

          k = 1.0162 0.0000 0.1485 ( 36485 PWs)   bands (ev):

   -44.1524 -44.1524 -22.2520 -22.2520 -22.2411 -22.2411 -22.0857 -22.0857
    -6.7759  -6.7602  -6.4052  -6.3983  -6.3176  -6.3132  -5.1496  -5.1492
    -4.4222  -4.4005  -0.2728  -0.2595   0.3039   0.3080   1.0036   1.0215
     1.4725   1.5727   2.1029   2.2012   2.3353   2.3901   2.6118   2.6853
     2.9071   3.0355   3.1262   3.2058   3.4877   3.5013   3.6509   3.6540
     4.0915   4.3130   6.3450   6.3904   6.6017   6.6904   7.2531   7.2546
     7.5034   7.5208

          k = 1.0162 0.0000-0.2971 ( 36514 PWs)   bands (ev):

   -44.1524 -44.1524 -22.2520 -22.2520 -22.2411 -22.2411 -22.0857 -22.0857
    -6.7651  -6.7651  -6.4211  -6.4211  -6.2987  -6.2987  -5.1481  -5.1481
    -4.4134  -4.4134  -0.3256  -0.3256   0.4638   0.4638   0.9850   0.9850
     1.5014   1.5014   1.9852   1.9852   2.3270   2.3270   2.7158   2.7158
     2.8451   2.8451   3.1990   3.1990   3.6234   3.6234   3.7628   3.7628
     4.3201   4.3201   6.0243   6.0243   6.5464   6.5464   7.2644   7.2644
     7.6199   7.6199

          k = 1.2703 0.0645 0.0000 ( 36468 PWs)   bands (ev):

   -44.1528 -44.1528 -22.2540 -22.2540 -22.2317 -22.2317 -22.0868 -22.0868
    -7.2685  -7.1104  -6.7852  -6.6776  -5.7378  -5.5795  -5.1591  -5.1162
    -4.4968  -4.4296  -0.3164   0.0325   0.0932   0.8538   0.9119   1.2829
     1.5030   1.7193   2.1600   2.1875   2.2340   2.2351   2.4116   2.8857
     3.0251   3.1934   3.3691   3.4136   3.5089   3.5699   3.6326   3.6770
     4.1254   4.5264   6.2627   6.5451   6.6042   6.8291   7.0567   7.1792
     7.3562   7.5395

          k = 1.2703 0.0645 0.1485 ( 36490 PWs)   bands (ev):

   -44.1528 -44.1528 -22.2540 -22.2540 -22.2317 -22.2317 -22.0868 -22.0868
    -7.2498  -7.1401  -6.7643  -6.6902  -5.7103  -5.5974  -5.1577  -5.1289
    -4.4856  -4.4386  -0.2785   0.0092   0.1508   0.7796   0.8885   1.2249
     1.5328   1.6247   2.0442   2.1494   2.2273   2.5582   2.6372   2.9511
     2.9654   3.0743   3.2335   3.2737   3.4851   3.5334   3.7770   3.8413
     4.1127   4.4780   6.0466   6.5392   6.7120   6.9231   7.0417   7.1982
     7.2386   7.5501

          k = 1.2703 0.0645-0.2971 ( 36480 PWs)   bands (ev):

   -44.1528 -44.1528 -22.2540 -22.2540 -22.2317 -22.2317 -22.0868 -22.0868
    -7.1999  -7.1999  -6.7236  -6.7236  -5.6490  -5.6490  -5.1489  -5.1489
    -4.4611  -4.4611  -0.1561  -0.1561   0.4477   0.4477   1.0406   1.0406
     1.5666   1.5666   2.0899   2.0899   2.4787   2.4787   2.8476   2.8476
     2.9999   2.9999   3.1530   3.1530   3.5814   3.5814   3.8871   3.8871
     4.1878   4.1878   6.3874   6.3874   6.5539   6.5539   7.1661   7.1661
     7.4826   7.4826

          k =-0.5081-0.3869 0.0000 ( 36463 PWs)   bands (ev):

   -44.1537 -44.1536 -22.2587 -22.2587 -22.2090 -22.2090 -22.0894 -22.0893
    -7.8593  -7.7040  -6.9209  -6.8130  -5.8281  -5.2282  -4.9912  -4.6283
    -4.5421  -4.5061  -0.1232   0.4017   0.7186   0.8195   1.1788   1.5411
     1.6558   1.7792   1.7892   2.0376   2.1601   2.4708   2.5837   3.2854
     3.5006   3.5319   3.5719   3.5797   3.7258   3.7699   4.0439   4.1546
     4.2713   4.8608   5.9075   6.1548   6.3436   6.8070   6.9103   6.9235
     7.3649   7.4436

          k =-0.5081-0.3869 0.1485 ( 36477 PWs)   bands (ev):

   -44.1537 -44.1537 -22.2587 -22.2587 -22.2090 -22.2090 -22.0894 -22.0893
    -7.8398  -7.7308  -6.9013  -6.8260  -5.7696  -5.3880  -4.8650  -4.6053
    -4.5968  -4.4974  -0.0597   0.3426   0.7614   0.7944   1.1372   1.2867
     1.6246   1.7243   1.9536   2.0318   2.3767   2.5392   2.8722   3.2137
     3.4050   3.5097   3.5232   3.5894   3.7071   3.7486   4.0162   4.1316
     4.2326   4.5211   6.2436   6.3481   6.4071   6.7840   6.8145   6.9714
     7.1871   7.4661

          k =-0.5081-0.3869-0.2971 ( 36492 PWs)   bands (ev):

   -44.1537 -44.1537 -22.2587 -22.2587 -22.2090 -22.2090 -22.0894 -22.0894
    -7.7888  -7.7888  -6.8605  -6.8605  -5.6085  -5.6085  -4.7172  -4.7172
    -4.5343  -4.5343   0.1229   0.1229   0.9358   0.9358   0.9655   0.9655
     1.6731   1.6731   2.0019   2.0019   2.7223   2.7223   3.0722   3.0722
     3.3587   3.3587   3.5591   3.5591   3.6829   3.6829   3.9992   3.9992
     4.2845   4.2845   6.4420   6.4420   6.7018   6.7018   6.8350   6.8350
     7.3029   7.3029

          k =-0.2541-0.3224 0.0000 ( 36485 PWs)   bands (ev):

   -44.1545 -44.1545 -22.2634 -22.2634 -22.1862 -22.1862 -22.0920 -22.0918
    -8.2373  -8.0769  -7.0643  -6.9331  -6.0002  -5.3575  -4.7776  -4.6869
    -4.6494  -3.9401   0.3051   0.7398   0.9407   1.1322   1.2762   1.4310
     1.4809   1.6683   1.8006   2.5091   2.5838   3.1896   3.4684   3.5783
     3.6309   3.6552   3.7678   3.9273   3.9418   4.1365   4.1816   4.3112
     4.3747   4.7254   6.0820   6.1229   6.2768   6.3843   6.4864   6.8672
     6.9487   7.0972

          k =-0.2541-0.3224 0.1485 ( 36445 PWs)   bands (ev):

   -44.1545 -44.1545 -22.2634 -22.2634 -22.1862 -22.1862 -22.0920 -22.0919
    -8.2170  -8.1043  -7.0401  -6.9484  -5.9375  -5.5135  -4.7555  -4.6714
    -4.5176  -4.0205   0.3744   0.6908   0.8898   1.1241   1.2047   1.3073
     1.5157   1.7457   2.1266   2.5119   2.5751   2.9584   3.4322   3.4846
     3.6040   3.6190   3.6697   3.9104   3.9811   4.1451   4.3197   4.3686
     4.5944   4.8204   5.9131   6.0162   6.1621   6.3445   6.4251   6.7981
     7.1550   7.2046

          k =-0.2541-0.3224-0.2971 ( 36442 PWs)   bands (ev):

   -44.1545 -44.1545 -22.2634 -22.2634 -22.1862 -22.1862 -22.0919 -22.0919
    -8.1641  -8.1641  -6.9899  -6.9899  -5.7598  -5.7598  -4.7131  -4.7131
    -4.2374  -4.2374   0.5463   0.5463   0.9103   0.9103   1.2536   1.2536
     1.7052   1.7052   2.4814   2.4814   2.6415   2.6415   3.2987   3.2987
     3.6002   3.6002   3.8168   3.8168   4.1063   4.1063   4.3496   4.3496
     4.9283   4.9283   5.7439   5.7439   6.2244   6.2244   6.5602   6.5602
     7.3268   7.3268

          k = 0.0000-0.2579 0.0000 ( 36445 PWs)   bands (ev):

   -44.1549 -44.1549 -22.2654 -22.2654 -22.1767 -22.1767 -22.0931 -22.0929
    -8.3672  -8.2038  -7.1267  -6.9827  -6.0552  -5.4062  -4.8013  -4.7075
    -4.6292  -3.7444   0.2262   0.8284   0.9966   1.2372   1.2642   1.6338
     1.6602   1.7453   2.2463   2.8511   2.9297   2.9697   3.1989   3.5612
     3.6302   3.6978   3.9434   3.9748   4.1604   4.3387   4.3929   4.6172
     4.7545   5.1567   5.6805   5.9712   5.9916   6.0315   6.1625   6.7215
     7.0824   7.1427

          k = 0.0000-0.2579 0.1485 ( 36452 PWs)   bands (ev):

   -44.1549 -44.1549 -22.2654 -22.2654 -22.1767 -22.1767 -22.0930 -22.0929
    -8.3465  -8.2317  -7.0999  -6.9991  -5.9930  -5.5641  -4.7868  -4.7174
    -4.4467  -3.8487   0.3082   0.9154   0.9621   1.0384   1.2100   1.6716
     1.7316   1.8589   2.0497   2.8647   2.9200   3.0054   3.3208   3.5777
     3.6856   3.7178   3.9155   3.9899   4.2111   4.2904   4.3446   4.6612
     4.7438   4.7917   5.9004   5.9346   5.9761   6.2670   6.2885   6.5848
     6.9399   6.9491

          k = 0.0000-0.2579-0.2971 ( 36454 PWs)   bands (ev):

   -44.1549 -44.1549 -22.2654 -22.2654 -22.1767 -22.1767 -22.0930 -22.0930
    -8.2927  -8.2927  -7.0444  -7.0444  -5.8146  -5.8146  -4.7519  -4.7519
    -4.1182  -4.1182   0.5488   0.5488   1.0981   1.0981   1.3728   1.3728
     1.7004   1.7004   2.5649   2.5649   2.8944   2.8944   3.5545   3.5545
     3.7827   3.7827   4.0893   4.0893   4.1194   4.1194   4.3848   4.3848
     4.7125   4.7125   5.9336   5.9336   6.2501   6.2501   6.5964   6.5964
     6.6428   6.6428

          k = 1.5243 0.0000 0.0000 ( 36439 PWs)   bands (ev):

   -44.1537 -44.1536 -22.2587 -22.2587 -22.2090 -22.2090 -22.0894 -22.0893
    -7.8577  -7.7037  -6.9213  -6.8129  -5.8310  -5.2290  -4.9935  -4.6304
    -4.5388  -4.5066  -0.1272   0.4085   0.7177   0.8103   1.1824   1.6094
     1.6735   1.7684   1.7930   2.0266   2.1920   2.4493   2.5768   3.2544
     3.5114   3.5192   3.5438   3.5824   3.7043   3.7846   3.9896   4.1846
     4.2656   4.8685   5.9036   6.1209   6.3753   6.8530   6.8745   6.9903
     7.3332   7.4927

          k = 1.5243 0.0000 0.1485 ( 36476 PWs)   bands (ev):

   -44.1537 -44.1536 -22.2587 -22.2587 -22.2090 -22.2090 -22.0894 -22.0893
    -7.8383  -7.7302  -6.9019  -6.8262  -5.7721  -5.3889  -4.8679  -4.6046
    -4.5984  -4.4953  -0.0627   0.3477   0.7611   0.7862   1.1377   1.2951
     1.7182   1.7315   1.9337   2.0068   2.4402   2.4933   2.8651   3.1928
     3.3716   3.5126   3.5280   3.5717   3.7105   3.7333   4.0046   4.1424
     4.2100   4.5325   6.2172   6.3656   6.4037   6.7636   6.8422   7.0463
     7.1444   7.4896

          k = 1.5243 0.0000-0.2971 ( 36508 PWs)   bands (ev):

   -44.1537 -44.1537 -22.2587 -22.2587 -22.2090 -22.2090 -22.0894 -22.0894
    -7.7877  -7.7877  -6.8610  -6.8610  -5.6101  -5.6101  -4.7200  -4.7200
    -4.5324  -4.5324   0.1227   0.1227   0.9388   0.9388   0.9611   0.9611
     1.7337   1.7337   1.9734   1.9734   2.7546   2.7546   3.0207   3.0207
     3.3592   3.3592   3.5493   3.5493   3.6749   3.6749   4.0032   4.0032
     4.2773   4.2773   6.4296   6.4296   6.7058   6.7058   6.8384   6.8384
     7.3227   7.3228

          k =-0.2541-0.4514 0.0000 ( 36444 PWs)   bands (ev):

   -44.1545 -44.1545 -22.2634 -22.2634 -22.1862 -22.1862 -22.0920 -22.0918
    -8.2346  -8.0763  -7.0619  -6.9317  -6.0116  -5.3619  -4.7914  -4.6790
    -4.6464  -3.9408   0.3182   0.7345   0.9459   1.2163   1.3056   1.4490
     1.5061   1.7484   1.8339   2.4411   2.5135   3.2467   3.4290   3.4671
     3.5281   3.6421   3.8374   3.9305   3.9587   4.0229   4.1003   4.2486
     4.3609   4.7606   6.1098   6.2029   6.2696   6.4357   6.5105   6.8665
     6.9135   7.0561

          k =-0.2541-0.4514 0.1485 ( 36461 PWs)   bands (ev):

   -44.1545 -44.1545 -22.2634 -22.2634 -22.1862 -22.1862 -22.0920 -22.0919
    -8.2145  -8.1033  -7.0384  -6.9473  -5.9475  -5.5183  -4.7655  -4.6675
    -4.5154  -4.0206   0.3881   0.6904   0.8915   1.1513   1.2887   1.3594
     1.5397   1.7748   2.1855   2.4467   2.5006   2.9953   3.3665   3.4145
     3.5189   3.5683   3.7560   3.9062   3.9549   4.0238   4.2797   4.3465
     4.5854   4.8471   5.9173   6.0121   6.1954   6.3710   6.4916   6.7507
     7.1633   7.1934

          k =-0.2541-0.4514-0.2971 ( 36490 PWs)   bands (ev):

   -44.1545 -44.1545 -22.2634 -22.2634 -22.1862 -22.1862 -22.0919 -22.0919
    -8.1623  -8.1623  -6.9889  -6.9889  -5.7669  -5.7669  -4.7161  -4.7161
    -4.2363  -4.2363   0.5573   0.5573   0.9154   0.9154   1.3332   1.3332
     1.7283   1.7283   2.4577   2.4577   2.6403   2.6403   3.2756   3.2756
     3.4755   3.4755   3.8850   3.8850   4.0265   4.0265   4.3166   4.3166
     4.9422   4.9422   5.7324   5.7324   6.2284   6.2284   6.5914   6.5914
     7.3256   7.3256

          k = 0.0000-0.3869 0.0000 ( 36477 PWs)   bands (ev):

   -44.1549 -44.1549 -22.2654 -22.2654 -22.1767 -22.1767 -22.0931 -22.0929
    -8.3638  -8.2030  -7.1217  -6.9804  -6.0730  -5.4138  -4.8173  -4.6950
    -4.6301  -3.7451   0.2468   0.8374   1.1406   1.2883   1.3012   1.6596
     1.7095   1.7444   2.2401   2.8700   2.9385   2.9879   3.1684   3.3117
     3.4626   3.7167   3.9149   3.9930   4.0254   4.1707   4.3937   4.5847
     4.7513   5.1370   5.7241   6.0308   6.0450   6.1152   6.1826   6.7462
     6.9429   7.1426

          k = 0.0000-0.3869 0.1485 ( 36452 PWs)   bands (ev):

   -44.1549 -44.1549 -22.2654 -22.2654 -22.1767 -22.1767 -22.0930 -22.0929
    -8.3434  -8.2304  -7.0959  -6.9971  -6.0088  -5.5723  -4.7992  -4.7114
    -4.4456  -3.8489   0.3298   0.9436   0.9770   1.1833   1.2816   1.6709
     1.7308   1.8706   2.0987   2.8822   2.9304   3.0116   3.2325   3.3407
     3.4829   3.8009   3.9466   3.9626   4.0900   4.1858   4.2766   4.6445
     4.7401   4.7902   5.9570   5.9821   6.0212   6.2804   6.3050   6.5958
     6.8364   6.9523

          k = 0.0000-0.3869-0.2971 ( 36454 PWs)   bands (ev):

   -44.1549 -44.1549 -22.2654 -22.2654 -22.1767 -22.1767 -22.0930 -22.0930
    -8.2903  -8.2903  -7.0420  -7.0420  -5.8261  -5.8261  -4.7554  -4.7554
    -4.1174  -4.1174   0.5743   0.5743   1.2034   1.2034   1.3911   1.3911
     1.6997   1.6997   2.6018   2.6018   2.9083   2.9083   3.2883   3.2883
     3.8347   3.8347   4.0227   4.0227   4.0962   4.0962   4.3190   4.3190
     4.7058   4.7058   5.9658   5.9658   6.2904   6.2904   6.5830   6.5830
     6.6060   6.6060

          k =-2.0325 0.0000 0.0000 ( 36452 PWs)   bands (ev):

   -44.1549 -44.1549 -22.2654 -22.2654 -22.1767 -22.1767 -22.0931 -22.0929
    -8.3624  -8.2027  -7.1198  -6.9792  -6.0805  -5.4169  -4.8234  -4.6892
    -4.6316  -3.7454   0.2529   0.8416   1.2640   1.2733   1.2977   1.6593
     1.7441   1.7541   2.2380   2.8783   2.9420   2.9990   3.1030   3.1965
     3.3933   3.8789   3.9016   3.9029   4.0004   4.0695   4.3939   4.5712
     4.7500   5.1301   5.7420   6.0514   6.0603   6.1594   6.1911   6.7396
     6.8923   7.1425

          k =-2.0325 0.0000 0.1485 ( 36456 PWs)   bands (ev):

   -44.1549 -44.1549 -22.2654 -22.2654 -22.1767 -22.1767 -22.0930 -22.0929
    -8.3421  -8.2299  -7.0944  -6.9960  -6.0154  -5.5757  -4.8040  -4.7092
    -4.4452  -3.8490   0.3362   0.9564   0.9820   1.2763   1.2967   1.6707
     1.7304   1.8757   2.1247   2.8898   2.9345   2.9984   3.1250   3.2675
     3.4339   3.9108   3.9512   3.9579   4.0330   4.0728   4.2704   4.6380
     4.7386   4.7897   5.9795   6.0051   6.0321   6.2863   6.3119   6.5865
     6.7998   6.9537

          k =-2.0325 0.0000-0.2971 ( 36460 PWs)   bands (ev):

   -44.1549 -44.1549 -22.2654 -22.2654 -22.1767 -22.1767 -22.0930 -22.0930
    -8.2894  -8.2894  -7.0410  -7.0410  -5.8309  -5.8309  -4.7569  -4.7569
    -4.1171  -4.1171   0.5822   0.5822   1.2546   1.2546   1.4033   1.4033
     1.6994   1.6994   2.6194   2.6194   2.9142   2.9142   3.1626   3.1626
     3.8779   3.8779   3.9830   3.9830   4.0863   4.0863   4.2935   4.2935
     4.7031   4.7031   5.9745   5.9745   6.3086   6.3086   6.5541   6.5542
     6.6100   6.6100

     the Fermi energy is     5.2262 ev

!    total energy              =   -4240.92432780 Ry

     total all-electron energy =   -150287.618022 Ry
     estimated scf accuracy    <          4.1E-11 Ry
     smearing contrib. (-TS)   =       0.00000391 Ry
     internal energy E=F+TS    =   -4240.92433170 Ry

     The total energy is F=E-TS. E is the sum of the following terms:
     one-electron contribution =    -168.93888861 Ry
     hartree contribution      =     117.91332998 Ry
     xc contribution           =    -201.64160231 Ry
     ewald contribution        =    -220.71141164 Ry
     one-center paw contrib.   =   -3767.54575913 Ry

     convergence has been achieved in  15 iterations

     Forces acting on atoms (cartesian axes, Ry/au):

     atom    1 type  1   force =     0.00000000    0.02137223    0.00000000
     atom    2 type  1   force =     0.00000000   -0.02137223    0.00000000
     atom    3 type  2   force =     0.00000000   -0.00027288    0.00000000
     atom    4 type  2   force =     0.00000000    0.00027288    0.00000000
     atom    5 type  2   force =     0.00000000   -0.00497326   -0.00332628
     atom    6 type  2   force =     0.00000000    0.00497326    0.00332628
     atom    7 type  2   force =     0.00000000   -0.00497326    0.00332628
     atom    8 type  2   force =     0.00000000    0.00497326   -0.00332628
     atom    9 type  2   force =     0.00000000   -0.04019031   -0.04735011
     atom   10 type  2   force =     0.00000000    0.04019031    0.04735011
     atom   11 type  2   force =     0.00000000   -0.04019031    0.04735011
     atom   12 type  2   force =     0.00000000    0.04019031   -0.04735011

     Total force =     0.128398     Total SCF correction =     0.000011


     Computing stress (Cartesian axis) and pressure

          total   stress  (Ry/bohr**3)                   (kbar)     P=       11.29
   0.00009188   0.00000000   0.00000000           13.52        0.00        0.00
   0.00000000   0.00003953   0.00000000            0.00        5.82        0.00
   0.00000000   0.00000000   0.00009882            0.00        0.00       14.54

 
     init_run     :     35.75s CPU     37.01s WALL (       1 calls)
     electrons    :   1468.95s CPU   1485.18s WALL (       1 calls)
     forces       :      7.13s CPU      7.36s WALL (       1 calls)
     stress       :     50.95s CPU     51.69s WALL (       1 calls)

     Called by init_run:
     wfcinit      :     30.80s CPU     31.09s WALL (       1 calls)
     potinit      :      1.50s CPU      1.56s WALL (       1 calls)
     hinit0       :      1.74s CPU      2.35s WALL (       1 calls)

     Called by electrons:
     c_bands      :   1174.32s CPU   1181.29s WALL (      16 calls)
     sum_band     :    265.41s CPU    270.88s WALL (      16 calls)
     v_of_rho     :      7.59s CPU      8.15s WALL (      16 calls)
     newd         :     15.84s CPU     19.31s WALL (      16 calls)
     PAW_pot      :      5.73s CPU      5.74s WALL (      16 calls)
     mix_rho      :      1.36s CPU      1.40s WALL (      16 calls)

     Called by c_bands:
     init_us_2    :     12.65s CPU     12.70s WALL (    2205 calls)
     cegterg      :   1105.95s CPU   1112.32s WALL (    1008 calls)

     Called by *egterg:
     cdiaghg      :     23.86s CPU     24.01s WALL (    6739 calls)
     h_psi        :    959.33s CPU    965.46s WALL (    6865 calls)
     s_psi        :     44.05s CPU     44.11s WALL (    6865 calls)
     g_psi        :      1.88s CPU      1.90s WALL (    5794 calls)

     Called by h_psi:
     h_psi:calbec :     36.97s CPU     37.06s WALL (    6865 calls)
     vloc_psi     :    874.82s CPU    880.70s WALL (    6865 calls)
     add_vuspsi   :     44.07s CPU     44.16s WALL (    6865 calls)

     General routines
     calbec       :     49.39s CPU     49.53s WALL (    8188 calls)
     fft          :      6.77s CPU      7.54s WALL (     232 calls)
     ffts         :      0.16s CPU      0.16s WALL (      32 calls)
     fftw         :    879.67s CPU    885.42s WALL (  362010 calls)
     interpolate  :      0.54s CPU      0.54s WALL (      16 calls)
 
     Parallel routines
     fft_scatt_xy :    242.91s CPU    244.42s WALL (  362274 calls)
     fft_scatt_yz :    148.83s CPU    150.25s WALL (  362274 calls)
 
     PWSCF        :  26m 3.76s CPU  26m28.54s WALL

 
   This run was terminated on:  15:12:45  19Nov2021            

=------------------------------------------------------------------------------=
   JOB DONE.
=------------------------------------------------------------------------------=
