
     Program PWSCF v.6.7MaX starts on 19Nov2021 at 14:46:19 

     This program is part of the open-source Quantum ESPRESSO suite
     for quantum simulation of materials; please cite
         "P. Giannozzi et al., J. Phys.:Condens. Matter 21 395502 (2009);
         "P. Giannozzi et al., J. Phys.:Condens. Matter 29 465901 (2017);
          URL http://www.quantum-espresso.org", 
     in publications or presentations arising from this work. More details at
     http://www.quantum-espresso.org/quote

     Parallel version (MPI), running on    10 processors

     MPI processes distributed on     1 nodes
     R & G space division:  proc/nbgrp/npool/nimage =      10
     Waiting for input...
     Reading input from standard input

     Current dimensions of program PWSCF are:
     Max number of different atomic species (ntypx) = 10
     Max number of k-points (npk) =  40000
     Max angular momentum in pseudopotentials (lmaxx) =  3
     file Zr.pbe-spn-kjpaw_psl.1.0.0.UPF: wavefunction(s)  4S 4P renormalized
     file Te.pbe-n-kjpaw_psl.1.0.0.UPF: wavefunction(s)  5S 5P renormalized

     Subspace diagonalization in iterative solution of the eigenvalue problem:
     a serial algorithm will be used

     Message from routine setup:
     using ibrav=0 with symmetry is DISCOURAGED, use correct ibrav instead
 
     Parallelization info
     --------------------
     sticks:   dense  smooth     PW     G-vecs:    dense   smooth      PW
     Min         734     293     87               115340    29174    4753
     Max         735     295     88               115345    29176    4760
     Sum        7345    2937    873              1153415   291749   47557
 


     bravais-lattice index     =            0
     lattice parameter (alat)  =      15.5510  a.u.
     unit-cell volume          =    3018.5011 (a.u.)^3
     number of atoms/cell      =           12
     number of atomic types    =            2
     number of electrons       =        84.00
     number of Kohn-Sham states=           50
     kinetic-energy cutoff     =      80.0000  Ry
     charge density cutoff     =     800.0000  Ry
     scf convergence threshold =      1.0E-10
     mixing beta               =       0.7000
     number of iterations used =            8  plain     mixing
     Exchange-correlation= SLA  PW   PBX  PBC
                           (   1   4   3   4   0   0   0)

     celldm(1)=  15.551040  celldm(2)=   0.000000  celldm(3)=   0.000000
     celldm(4)=   0.000000  celldm(5)=   0.000000  celldm(6)=   0.000000

     crystal axes: (cart. coord. in units of alat)
               a(1) = (   0.246007  -0.969268   0.000000 )  
               a(2) = (   0.246007   0.969268   0.000000 )  
               a(3) = (   0.000000   0.000000   1.683031 )  

     reciprocal axes: (cart. coord. in units 2 pi/alat)
               b(1) = (  2.032465 -0.515853  0.000000 )  
               b(2) = (  2.032465  0.515853  0.000000 )  
               b(3) = (  0.000000  0.000000  0.594166 )  


     PseudoPot. # 1 for Zr read from file:
     pseudo/Zr.pbe-spn-kjpaw_psl.1.0.0.UPF
     MD5 check sum: 02112c41713a0468aff2bb39ef194e36
     Pseudo is Projector augmented-wave + core cor, Zval = 12.0
     Generated using &quot;atomic&quot; code by A. Dal Corso  v.6.2.2
     Shape of augmentation charge: PSQ
     Using radial grid of 1225 points,  6 beta functions with: 
                l(1) =   0
                l(2) =   0
                l(3) =   1
                l(4) =   1
                l(5) =   2
                l(6) =   2
     Q(r) pseudized with 0 coefficients 


     PseudoPot. # 2 for Te read from file:
     pseudo/Te.pbe-n-kjpaw_psl.1.0.0.UPF
     MD5 check sum: 66247bff2bd9dbf220fbb0bf5ab56e9d
     Pseudo is Projector augmented-wave + core cor, Zval =  6.0
     Generated using &quot;atomic&quot; code by A. Dal Corso  v.6.3
     Shape of augmentation charge: PSQ
     Using radial grid of 1245 points,  6 beta functions with: 
                l(1) =   0
                l(2) =   0
                l(3) =   1
                l(4) =   1
                l(5) =   2
                l(6) =   2
     Q(r) pseudized with 0 coefficients 


     atomic species   valence    mass     pseudopotential
        Zr            12.00    91.22000     Zr( 1.00)
        Te             6.00   127.60000     Te( 1.00)

      8 Sym. Ops., with inversion, found ( 4 have fractional translation)



   Cartesian axes

     site n.     atom                  positions (alat units)
         1           Zr  tau(   1) = (   0.0000000   0.5975416   0.4207578  )
         2           Zr  tau(   2) = (   0.2460067   0.3717265   1.2622733  )
         3           Te  tau(   3) = (   0.2460067   0.3340863   0.4207578  )
         4           Te  tau(   4) = (   0.0000000   0.6351818   1.2622733  )
         5           Te  tau(   5) = (   0.2460067   0.8134973   0.2545696  )
         6           Te  tau(   6) = (   0.0000000   0.1557708   1.4284615  )
         7           Te  tau(   7) = (   0.2460067   0.8134973   0.5869460  )
         8           Te  tau(   8) = (   0.0000000   0.1557708   1.0960851  )
         9           Te  tau(   9) = (   0.0000000   0.4290219   0.7443635  )
        10           Te  tau(  10) = (   0.2460067   0.5402462   0.9386676  )
        11           Te  tau(  11) = (   0.0000000   0.4290219   0.0971520  )
        12           Te  tau(  12) = (   0.2460067   0.5402462   1.5858790  )

     number of k points=    63  Methfessel-Paxton smearing, width (Ry)=  0.0030
                       cart. coord. in units 2pi/alat
        k(    1) = (   0.0000000   0.0000000   0.0000000), wk =   0.0078125
        k(    2) = (   0.0000000   0.0000000   0.1485415), wk =   0.0156250
        k(    3) = (   0.0000000   0.0000000  -0.2970830), wk =   0.0078125
        k(    4) = (   0.2540581   0.0644816   0.0000000), wk =   0.0312500
        k(    5) = (   0.2540581   0.0644816   0.1485415), wk =   0.0625000
        k(    6) = (   0.2540581   0.0644816  -0.2970830), wk =   0.0312500
        k(    7) = (   0.5081162   0.1289633   0.0000000), wk =   0.0312500
        k(    8) = (   0.5081162   0.1289633   0.1485415), wk =   0.0625000
        k(    9) = (   0.5081162   0.1289633  -0.2970830), wk =   0.0312500
        k(   10) = (   0.7621743   0.1934449   0.0000000), wk =   0.0312500
        k(   11) = (   0.7621743   0.1934449   0.1485415), wk =   0.0625000
        k(   12) = (   0.7621743   0.1934449  -0.2970830), wk =   0.0312500
        k(   13) = (  -1.0162324  -0.2579266   0.0000000), wk =   0.0156250
        k(   14) = (  -1.0162324  -0.2579266   0.1485415), wk =   0.0312500
        k(   15) = (  -1.0162324  -0.2579266  -0.2970830), wk =   0.0156250
        k(   16) = (   0.5081162   0.0000000   0.0000000), wk =   0.0156250
        k(   17) = (   0.5081162   0.0000000   0.1485415), wk =   0.0312500
        k(   18) = (   0.5081162   0.0000000  -0.2970830), wk =   0.0156250
        k(   19) = (   0.7621743   0.0644816   0.0000000), wk =   0.0312500
        k(   20) = (   0.7621743   0.0644816   0.1485415), wk =   0.0625000
        k(   21) = (   0.7621743   0.0644816  -0.2970830), wk =   0.0312500
        k(   22) = (   1.0162324   0.1289633   0.0000000), wk =   0.0312500
        k(   23) = (   1.0162324   0.1289633   0.1485415), wk =   0.0625000
        k(   24) = (   1.0162324   0.1289633  -0.2970830), wk =   0.0312500
        k(   25) = (  -0.7621743  -0.3224082   0.0000000), wk =   0.0312500
        k(   26) = (  -0.7621743  -0.3224082   0.1485415), wk =   0.0625000
        k(   27) = (  -0.7621743  -0.3224082  -0.2970830), wk =   0.0312500
        k(   28) = (  -0.5081162  -0.2579266   0.0000000), wk =   0.0312500
        k(   29) = (  -0.5081162  -0.2579266   0.1485415), wk =   0.0625000
        k(   30) = (  -0.5081162  -0.2579266  -0.2970830), wk =   0.0312500
        k(   31) = (  -0.2540581  -0.1934449   0.0000000), wk =   0.0312500
        k(   32) = (  -0.2540581  -0.1934449   0.1485415), wk =   0.0625000
        k(   33) = (  -0.2540581  -0.1934449  -0.2970830), wk =   0.0312500
        k(   34) = (   0.0000000  -0.1289633   0.0000000), wk =   0.0156250
        k(   35) = (   0.0000000  -0.1289633   0.1485415), wk =   0.0312500
        k(   36) = (   0.0000000  -0.1289633  -0.2970830), wk =   0.0156250
        k(   37) = (   1.0162324   0.0000000   0.0000000), wk =   0.0156250
        k(   38) = (   1.0162324   0.0000000   0.1485415), wk =   0.0312500
        k(   39) = (   1.0162324   0.0000000  -0.2970830), wk =   0.0156250
        k(   40) = (   1.2702905   0.0644816   0.0000000), wk =   0.0312500
        k(   41) = (   1.2702905   0.0644816   0.1485415), wk =   0.0625000
        k(   42) = (   1.2702905   0.0644816  -0.2970830), wk =   0.0312500
        k(   43) = (  -0.5081162  -0.3868899   0.0000000), wk =   0.0312500
        k(   44) = (  -0.5081162  -0.3868899   0.1485415), wk =   0.0625000
        k(   45) = (  -0.5081162  -0.3868899  -0.2970830), wk =   0.0312500
        k(   46) = (  -0.2540581  -0.3224082   0.0000000), wk =   0.0312500
        k(   47) = (  -0.2540581  -0.3224082   0.1485415), wk =   0.0625000
        k(   48) = (  -0.2540581  -0.3224082  -0.2970830), wk =   0.0312500
        k(   49) = (   0.0000000  -0.2579266   0.0000000), wk =   0.0156250
        k(   50) = (   0.0000000  -0.2579266   0.1485415), wk =   0.0312500
        k(   51) = (   0.0000000  -0.2579266  -0.2970830), wk =   0.0156250
        k(   52) = (   1.5243485   0.0000000   0.0000000), wk =   0.0156250
        k(   53) = (   1.5243485   0.0000000   0.1485415), wk =   0.0312500
        k(   54) = (   1.5243485   0.0000000  -0.2970830), wk =   0.0156250
        k(   55) = (  -0.2540581  -0.4513715   0.0000000), wk =   0.0312500
        k(   56) = (  -0.2540581  -0.4513715   0.1485415), wk =   0.0625000
        k(   57) = (  -0.2540581  -0.4513715  -0.2970830), wk =   0.0312500
        k(   58) = (   0.0000000  -0.3868899   0.0000000), wk =   0.0156250
        k(   59) = (   0.0000000  -0.3868899   0.1485415), wk =   0.0312500
        k(   60) = (   0.0000000  -0.3868899  -0.2970830), wk =   0.0156250
        k(   61) = (  -2.0324647   0.0000000   0.0000000), wk =   0.0078125
        k(   62) = (  -2.0324647   0.0000000   0.1485415), wk =   0.0156250
        k(   63) = (  -2.0324647   0.0000000  -0.2970830), wk =   0.0078125

     Dense  grid:  1153415 G-vectors     FFT dimensions: ( 144, 144, 240)

     Smooth grid:   291749 G-vectors     FFT dimensions: (  90,  90, 150)

     Estimated max dynamical RAM per process >     657.19 MB

     Estimated total dynamical RAM >       6.42 GB

     Initial potential from superposition of free atoms

     starting charge   83.99353, renormalised to   84.00000
     Starting wfcs are   66 randomized atomic wfcs
     Checking if some PAW data can be deallocated... 

     total cpu time spent up to now is       43.2 secs

     Self-consistent Calculation

     iteration #  1     ecut=    80.00 Ry     beta= 0.70
     Davidson diagonalization with overlap
     ethr =  1.00E-02,  avg # of iterations =  2.2

     Threshold (ethr) on eigenvalues was too large:
     Diagonalizing with lowered threshold

     Davidson diagonalization with overlap
     ethr =  4.94E-04,  avg # of iterations =  4.0

     total cpu time spent up to now is      201.4 secs

     total energy              =   -4240.66669742 Ry
     estimated scf accuracy    <       0.46280695 Ry

     iteration #  2     ecut=    80.00 Ry     beta= 0.70
     Davidson diagonalization with overlap
     ethr =  5.51E-04,  avg # of iterations =  8.3

     total cpu time spent up to now is      314.8 secs

     total energy              =   -4240.55187902 Ry
     estimated scf accuracy    <       2.08782326 Ry

     iteration #  3     ecut=    80.00 Ry     beta= 0.70
     Davidson diagonalization with overlap
     ethr =  5.51E-04,  avg # of iterations =  5.4

     total cpu time spent up to now is      408.5 secs

     total energy              =   -4240.89226651 Ry
     estimated scf accuracy    <       0.00812282 Ry

     iteration #  4     ecut=    80.00 Ry     beta= 0.70
     Davidson diagonalization with overlap
     c_bands:  1 eigenvalues not converged
     c_bands:  1 eigenvalues not converged
     c_bands:  1 eigenvalues not converged
     c_bands:  1 eigenvalues not converged
     c_bands:  2 eigenvalues not converged
     c_bands:  2 eigenvalues not converged
     c_bands:  2 eigenvalues not converged
     c_bands:  1 eigenvalues not converged
     c_bands:  2 eigenvalues not converged
     c_bands:  4 eigenvalues not converged
     c_bands:  1 eigenvalues not converged
     c_bands:  1 eigenvalues not converged
     c_bands:  1 eigenvalues not converged
     c_bands:  1 eigenvalues not converged
     c_bands:  2 eigenvalues not converged
     c_bands:  2 eigenvalues not converged
     c_bands:  1 eigenvalues not converged
     c_bands:  1 eigenvalues not converged
     ethr =  9.67E-06,  avg # of iterations = 16.5

     total cpu time spent up to now is      579.3 secs

     total energy              =   -4240.90083737 Ry
     estimated scf accuracy    <       0.03181713 Ry

     iteration #  5     ecut=    80.00 Ry     beta= 0.70
     Davidson diagonalization with overlap
     ethr =  9.67E-06,  avg # of iterations =  6.6

     total cpu time spent up to now is      670.1 secs

     total energy              =   -4240.90261577 Ry
     estimated scf accuracy    <       0.00533116 Ry

     iteration #  6     ecut=    80.00 Ry     beta= 0.70
     Davidson diagonalization with overlap
     ethr =  6.35E-06,  avg # of iterations =  3.7

     total cpu time spent up to now is      747.5 secs

     total energy              =   -4240.90307974 Ry
     estimated scf accuracy    <       0.00092224 Ry

     iteration #  7     ecut=    80.00 Ry     beta= 0.70
     Davidson diagonalization with overlap
     ethr =  1.10E-06,  avg # of iterations =  8.4

     total cpu time spent up to now is      856.5 secs

     total energy              =   -4240.90347760 Ry
     estimated scf accuracy    <       0.00067554 Ry

     iteration #  8     ecut=    80.00 Ry     beta= 0.70
     Davidson diagonalization with overlap
     ethr =  8.04E-07,  avg # of iterations =  2.0

     total cpu time spent up to now is      926.0 secs

     total energy              =   -4240.90349877 Ry
     estimated scf accuracy    <       0.00010111 Ry

     iteration #  9     ecut=    80.00 Ry     beta= 0.70
     Davidson diagonalization with overlap
     ethr =  1.20E-07,  avg # of iterations =  6.1

     total cpu time spent up to now is     1015.1 secs

     total energy              =   -4240.90353097 Ry
     estimated scf accuracy    <       0.00000945 Ry

     iteration # 10     ecut=    80.00 Ry     beta= 0.70
     Davidson diagonalization with overlap
     ethr =  1.12E-08,  avg # of iterations =  5.2

     total cpu time spent up to now is     1096.2 secs

     total energy              =   -4240.90353363 Ry
     estimated scf accuracy    <       0.00000061 Ry

     iteration # 11     ecut=    80.00 Ry     beta= 0.70
     Davidson diagonalization with overlap
     ethr =  7.27E-10,  avg # of iterations =  6.9

     total cpu time spent up to now is     1199.0 secs

     total energy              =   -4240.90353408 Ry
     estimated scf accuracy    <       0.00000010 Ry

     iteration # 12     ecut=    80.00 Ry     beta= 0.70
     Davidson diagonalization with overlap
     ethr =  1.24E-10,  avg # of iterations =  5.1

     total cpu time spent up to now is     1279.8 secs

     total energy              =   -4240.90353411 Ry
     estimated scf accuracy    <          5.5E-09 Ry

     iteration # 13     ecut=    80.00 Ry     beta= 0.70
     Davidson diagonalization with overlap
     ethr =  6.56E-12,  avg # of iterations =  7.7

     total cpu time spent up to now is     1394.1 secs

     total energy              =   -4240.90353412 Ry
     estimated scf accuracy    <          6.7E-09 Ry

     iteration # 14     ecut=    80.00 Ry     beta= 0.70
     Davidson diagonalization with overlap
     ethr =  6.56E-12,  avg # of iterations =  2.1

     total cpu time spent up to now is     1464.1 secs

     total energy              =   -4240.90353412 Ry
     estimated scf accuracy    <          6.5E-10 Ry

     iteration # 15     ecut=    80.00 Ry     beta= 0.70
     Davidson diagonalization with overlap
     ethr =  7.71E-13,  avg # of iterations =  7.5

     total cpu time spent up to now is     1559.9 secs

     total energy              =   -4240.90353412 Ry
     estimated scf accuracy    <          4.8E-10 Ry

     iteration # 16     ecut=    80.00 Ry     beta= 0.70
     Davidson diagonalization with overlap
     ethr =  5.71E-13,  avg # of iterations =  1.7

     total cpu time spent up to now is     1628.2 secs

     total energy              =   -4240.90353412 Ry
     estimated scf accuracy    <          1.4E-10 Ry

     iteration # 17     ecut=    80.00 Ry     beta= 0.70
     Davidson diagonalization with overlap
     ethr =  1.69E-13,  avg # of iterations =  5.1

     total cpu time spent up to now is     1700.7 secs

     End of self-consistent calculation

          k = 0.0000 0.0000 0.0000 ( 36359 PWs)   bands (ev):

   -44.1643 -44.1643 -22.2707 -22.2707 -22.1828 -22.1827 -22.1049 -22.1047
    -8.5560  -8.4205  -7.1394  -7.0110  -5.9597  -5.3820  -4.7556  -4.7070
    -4.5393  -3.7083   0.1346   0.8563   0.8672   1.1518   1.1836   1.4316
     1.4899   1.5195   2.2598   2.8457   2.9200   2.9321   3.1392   3.4541
     3.9534   4.0269   4.1396   4.1586   4.3368   4.4307   4.5681   4.6317
     4.7858   5.0646   5.6076   5.7823   5.8276   5.9750   6.2227   6.5720
     7.2035   7.2567

          k = 0.0000 0.0000 0.1485 ( 36415 PWs)   bands (ev):

   -44.1643 -44.1643 -22.2707 -22.2707 -22.1828 -22.1827 -22.1048 -22.1047
    -8.5382  -8.4428  -7.1165  -7.0262  -5.9037  -5.5187  -4.7446  -4.7131
    -4.3752  -3.8090   0.2154   0.8049   0.9207   0.9839   1.1433   1.4396
     1.4808   1.8266   1.9799   2.8577   2.9102   2.9365   3.3321   3.5304
     3.8685   4.0682   4.1213   4.1593   4.3365   4.4041   4.5373   4.6791
     4.7361   4.7729   5.7797   5.8244   5.8261   6.2104   6.3423   6.4605
     6.9955   7.0561

          k = 0.0000 0.0000-0.2971 ( 36410 PWs)   bands (ev):

   -44.1643 -44.1643 -22.2707 -22.2707 -22.1828 -22.1828 -22.1048 -22.1048
    -8.4928  -8.4928  -7.0675  -7.0675  -5.7430  -5.7430  -4.7280  -4.7280
    -4.0673  -4.0673   0.4498   0.4498   1.0099   1.0099   1.3743   1.3743
     1.4596   1.4596   2.4785   2.4785   2.8851   2.8851   3.6728   3.6728
     3.9146   3.9146   4.1832   4.1832   4.2595   4.2595   4.5202   4.5202
     4.7362   4.7362   5.8080   5.8080   6.1574   6.1574   6.6407   6.6407
     6.6468   6.6468

          k = 0.2541 0.0645 0.0000 ( 36396 PWs)   bands (ev):

   -44.1640 -44.1640 -22.2687 -22.2687 -22.1922 -22.1922 -22.1038 -22.1037
    -8.4246  -8.2904  -7.0776  -6.9607  -5.9041  -5.3334  -4.7116  -4.6618
    -4.6205  -3.9212   0.2005   0.5652   0.9576   0.9869   1.0690   1.3265
     1.3310   1.5633   1.7482   2.6126   2.6501   3.1233   3.3744   3.6831
     3.7645   3.8211   3.9228   3.9687   4.1137   4.3093   4.3356   4.4569
     4.5321   4.6638   5.9869   6.0139   6.1182   6.2159   6.3588   6.8019
     7.0783   7.2681

          k = 0.2541 0.0645 0.1485 ( 36423 PWs)   bands (ev):

   -44.1640 -44.1640 -22.2687 -22.2687 -22.1922 -22.1922 -22.1038 -22.1037
    -8.4071  -8.3126  -7.0567  -6.9746  -5.8483  -5.4689  -4.7036  -4.6678
    -4.4701  -3.9986   0.2680   0.5403   0.8155   0.9958   1.0330   1.2072
     1.3769   1.7142   1.9918   2.6159   2.6347   2.9096   3.4467   3.4889
     3.5202   3.8970   3.9935   4.0772   4.0926   4.2669   4.4602   4.5320
     4.6067   4.7544   5.9025   5.9681   6.1038   6.1727   6.2078   6.8717
     7.2050   7.2250

          k = 0.2541 0.0645-0.2971 ( 36436 PWs)   bands (ev):

   -44.1640 -44.1640 -22.2687 -22.2687 -22.1922 -22.1922 -22.1037 -22.1037
    -8.3621  -8.3621  -7.0121  -7.0121  -5.6893  -5.6893  -4.6857  -4.6857
    -4.2060  -4.2060   0.4318   0.4318   0.7791   0.7791   1.1283   1.1283
     1.6095   1.6095   2.4661   2.4661   2.6454   2.6454   3.3231   3.3231
     3.7204   3.7204   4.0508   4.0508   4.2123   4.2123   4.5033   4.5033
     4.8600   4.8600   5.7608   5.7608   6.1116   6.1116   6.5169   6.5169
     7.3313   7.3313

          k = 0.5081 0.1290 0.0000 ( 36499 PWs)   bands (ev):

   -44.1631 -44.1631 -22.2641 -22.2640 -22.2148 -22.2148 -22.1013 -22.1012
    -8.0374  -7.9063  -6.9294  -6.8378  -5.7553  -5.2093  -4.9665  -4.5915
    -4.5444  -4.5301  -0.2583   0.2418   0.7403   0.7725   1.1674   1.3257
     1.6386   1.6394   1.7274   2.0669   2.1348   2.4984   2.6569   3.4128
     3.4568   3.5488   3.6080   3.7557   3.7730   3.8586   4.0444   4.2818
     4.2878   4.7621   6.0366   6.2423   6.3533   6.6152   6.6792   7.1290
     7.3830   7.5331

          k = 0.5081 0.1290 0.1485 ( 36476 PWs)   bands (ev):

   -44.1631 -44.1631 -22.2641 -22.2640 -22.2148 -22.2148 -22.1013 -22.1012
    -8.0204  -7.9280  -6.9130  -6.8488  -5.7031  -5.3550  -4.8471  -4.6033
    -4.5727  -4.5154  -0.1966   0.1734   0.7305   0.8257   1.1387   1.2032
     1.4095   1.5976   1.9983   2.0872   2.2591   2.5582   2.9162   3.2971
     3.4550   3.5013   3.5636   3.7344   3.7990   3.8179   3.9293   4.2798
     4.3241   4.4556   6.3092   6.3802   6.4752   6.6143   6.7606   7.0099
     7.2493   7.5242

          k = 0.5081 0.1290-0.2971 ( 36466 PWs)   bands (ev):

   -44.1631 -44.1631 -22.2641 -22.2641 -22.2148 -22.2148 -22.1012 -22.1012
    -7.9765  -7.9765  -6.8783  -6.8783  -5.5573  -5.5573  -4.7044  -4.7044
    -4.5362  -4.5362  -0.0248  -0.0248   0.8827   0.8827   0.9892   0.9892
     1.4883   1.4883   2.0570   2.0570   2.6175   2.6175   3.1864   3.1864
     3.3794   3.3794   3.6056   3.6056   3.7895   3.7895   3.9827   3.9827
     4.3694   4.3694   6.5320   6.5320   6.5761   6.5761   6.9001   6.9001
     7.3287   7.3287

          k = 0.7622 0.1934 0.0000 ( 36521 PWs)   bands (ev):

   -44.1622 -44.1622 -22.2593 -22.2593 -22.2373 -22.2373 -22.0988 -22.0987
    -7.4233  -7.2903  -6.7887  -6.7056  -5.7722  -5.6473  -5.1578  -5.0933
    -4.4619  -4.4225  -0.3865  -0.0087   0.0360   0.8633   0.8871   1.3198
     1.4940   1.5913   2.0233   2.0823   2.2236   2.3360   2.4865   2.8244
     3.0475   3.1797   3.3454   3.4161   3.5442   3.6516   3.7059   3.7730
     3.9328   4.6059   6.3721   6.5330   6.6800   6.9954   7.0122   7.0632
     7.4140   7.6093

          k = 0.7622 0.1934 0.1485 ( 36503 PWs)   bands (ev):

   -44.1622 -44.1622 -22.2593 -22.2593 -22.2373 -22.2373 -22.0987 -22.0987
    -7.4066  -7.3133  -6.7737  -6.7157  -5.7508  -5.6620  -5.1525  -5.1077
    -4.4550  -4.4274  -0.3479  -0.0820   0.1434   0.7303   0.9245   1.2580
     1.5012   1.5849   1.9715   2.0140   2.2180   2.5366   2.7242   2.9136
     2.9719   3.0186   3.2696   3.3158   3.5035   3.5891   3.8145   3.9298
     4.0100   4.4690   6.2160   6.5036   6.8093   6.9665   7.0652   7.1667
     7.2525   7.6717

          k = 0.7622 0.1934-0.2971 ( 36522 PWs)   bands (ev):

   -44.1622 -44.1622 -22.2593 -22.2593 -22.2373 -22.2373 -22.0987 -22.0987
    -7.3629  -7.3629  -6.7424  -6.7424  -5.7030  -5.7030  -5.1347  -5.1347
    -4.4403  -4.4403  -0.2320  -0.2320   0.4200   0.4200   1.0699   1.0699
     1.5507   1.5507   1.9689   1.9689   2.4796   2.4796   2.8599   2.8599
     2.9377   2.9377   3.2449   3.2449   3.5852   3.5852   3.9701   3.9701
     4.1215   4.1215   6.5235   6.5235   6.5897   6.5897   7.1026   7.1026
     7.6258   7.6259

          k =-1.0162-0.2579 0.0000 ( 36506 PWs)   bands (ev):

   -44.1619 -44.1619 -22.2573 -22.2573 -22.2467 -22.2467 -22.0977 -22.0977
    -6.8147  -6.7926  -6.4980  -6.4949  -6.4748  -6.4622  -5.1131  -5.1126
    -4.4028  -4.3708  -0.2216  -0.2050   0.0811   0.1018   1.0148   1.0209
     1.4667   1.6519   2.1858   2.3372   2.3727   2.4000   2.7664   2.8555
     2.8843   2.9409   3.1662   3.1993   3.2701   3.3274   3.4263   3.5770
     4.0740   4.3105   6.7446   6.8067   6.9633   6.9724   7.1543   7.2573
     7.2578   7.3320

          k =-1.0162-0.2579 0.1485 ( 36506 PWs)   bands (ev):

   -44.1619 -44.1619 -22.2573 -22.2573 -22.2467 -22.2467 -22.0977 -22.0977
    -6.8072  -6.7908  -6.5360  -6.5294  -6.4393  -6.4341  -5.1119  -5.1116
    -4.3999  -4.3773  -0.3069  -0.3016   0.2453   0.2539   1.0118   1.0180
     1.4567   1.5846   2.1024   2.2575   2.3102   2.3835   2.6091   2.6507
     2.9171   2.9936   3.1438   3.2361   3.4520   3.5223   3.5806   3.6575
     4.1740   4.3188   6.4438   6.4661   6.6421   6.7200   7.2710   7.2750
     7.5095   7.5771

          k =-1.0162-0.2579-0.2971 ( 36528 PWs)   bands (ev):

   -44.1619 -44.1619 -22.2573 -22.2573 -22.2467 -22.2467 -22.0977 -22.0977
    -6.7940  -6.7940  -6.5540  -6.5540  -6.4201  -6.4201  -5.1106  -5.1106
    -4.3903  -4.3903  -0.3618  -0.3618   0.3913   0.3913   0.9936   0.9936
     1.4943   1.4943   2.0282   2.0282   2.3244   2.3244   2.7342   2.7342
     2.7755   2.7755   3.2308   3.2308   3.6038   3.6038   3.7437   3.7437
     4.3363   4.3363   6.1370   6.1370   6.5782   6.5782   7.2820   7.2820
     7.6565   7.6565

          k = 0.5081 0.0000 0.0000 ( 36503 PWs)   bands (ev):

   -44.1631 -44.1631 -22.2641 -22.2640 -22.2148 -22.2148 -22.1013 -22.1012
    -8.0386  -7.9065  -6.9294  -6.8380  -5.7526  -5.2084  -4.9645  -4.5840
    -4.5530  -4.5296  -0.2544   0.2348   0.7587   0.7662   1.1642   1.2889
     1.6263   1.6349   1.7107   2.0736   2.1308   2.4885   2.6622   3.4260
     3.4476   3.5843   3.6206   3.7552   3.7690   3.9029   4.0216   4.2921
     4.3176   4.7484   6.0433   6.2173   6.3810   6.5795   6.6268   7.1699
     7.3855   7.5651

          k = 0.5081 0.0000 0.1485 ( 36453 PWs)   bands (ev):

   -44.1631 -44.1631 -22.2641 -22.2640 -22.2148 -22.2148 -22.1013 -22.1012
    -8.0214  -7.9285  -6.9129  -6.8488  -5.7007  -5.3539  -4.8445  -4.6033
    -4.5697  -4.5196  -0.1935   0.1690   0.7374   0.8259   1.1435   1.1921
     1.3712   1.5761   1.9984   2.1058   2.2382   2.5494   2.9202   3.3089
     3.4789   3.4921   3.5771   3.7547   3.7955   3.8732   3.8822   4.3018
     4.3559   4.4313   6.2943   6.3861   6.4934   6.5741   6.7237   7.0454
     7.2577   7.5469

          k = 0.5081 0.0000-0.2971 ( 36452 PWs)   bands (ev):

   -44.1631 -44.1631 -22.2640 -22.2640 -22.2148 -22.2148 -22.1012 -22.1012
    -7.9773  -7.9773  -6.8781  -6.8781  -5.5557  -5.5557  -4.7017  -4.7017
    -4.5381  -4.5381  -0.0244  -0.0244   0.8798   0.8798   0.9931   0.9931
     1.4561   1.4561   2.0624   2.0624   2.6053   2.6053   3.1976   3.1976
     3.3900   3.3900   3.6050   3.6050   3.8221   3.8221   3.9625   3.9625
     4.3858   4.3858   6.5337   6.5337   6.5523   6.5523   6.9168   6.9168
     7.3341   7.3342

          k = 0.7622 0.0645 0.0000 ( 36505 PWs)   bands (ev):

   -44.1622 -44.1622 -22.2593 -22.2593 -22.2373 -22.2373 -22.0988 -22.0987
    -7.4262  -7.2909  -6.7858  -6.7048  -5.7730  -5.6457  -5.1565  -5.0935
    -4.4499  -4.4351  -0.3788  -0.0000   0.0331   0.8549   0.9150   1.3325
     1.4700   1.5498   1.9881   2.0680   2.2582   2.3573   2.4362   2.8000
     3.0400   3.2148   3.3490   3.4285   3.6080   3.6698   3.7152   3.7568
     3.8594   4.6208   6.3705   6.5010   6.7124   6.9868   7.0217   7.0478
     7.4151   7.6642

          k = 0.7622 0.0645 0.1485 ( 36509 PWs)   bands (ev):

   -44.1622 -44.1622 -22.2593 -22.2593 -22.2373 -22.2373 -22.0987 -22.0987
    -7.4093  -7.3144  -6.7708  -6.7144  -5.7514  -5.6610  -5.1515  -5.1076
    -4.4466  -4.4363  -0.3403  -0.0746   0.1406   0.7216   0.9495   1.2690
     1.4769   1.5794   1.9408   1.9643   2.2270   2.5310   2.7282   2.9012
     2.9823   3.0091   3.2972   3.3212   3.5443   3.5779   3.8059   3.9643
     3.9681   4.4587   6.2409   6.4785   6.8301   6.9644   7.0433   7.1919
     7.2345   7.7118

          k = 0.7622 0.0645-0.2971 ( 36472 PWs)   bands (ev):

   -44.1622 -44.1622 -22.2593 -22.2593 -22.2373 -22.2373 -22.0987 -22.0987
    -7.3649  -7.3649  -6.7400  -6.7400  -5.7030  -5.7030  -5.1340  -5.1340
    -4.4404  -4.4404  -0.2246  -0.2246   0.4145   0.4145   1.0864   1.0864
     1.5471   1.5471   1.9168   1.9168   2.4896   2.4896   2.8637   2.8637
     2.9116   2.9116   3.2873   3.2873   3.5819   3.5819   4.0067   4.0067
     4.0733   4.0733   6.5539   6.5539   6.5859   6.5859   7.0748   7.0748
     7.6546   7.6546

          k = 1.0162 0.1290 0.0000 ( 36514 PWs)   bands (ev):

   -44.1619 -44.1619 -22.2573 -22.2573 -22.2467 -22.2467 -22.0977 -22.0977
    -6.8147  -6.7926  -6.4980  -6.4949  -6.4747  -6.4623  -5.1131  -5.1126
    -4.4028  -4.3708  -0.2271  -0.1994   0.0792   0.1037   1.0053   1.0311
     1.4744   1.6407   2.1812   2.3452   2.3819   2.3900   2.7476   2.8907
     2.8910   2.9315   3.1558   3.1880   3.2805   3.3119   3.4415   3.5769
     4.0550   4.3297   6.7371   6.8193   6.9392   6.9961   7.1809   7.2571
     7.2595   7.3066

          k = 1.0162 0.1290 0.1485 ( 36524 PWs)   bands (ev):

   -44.1619 -44.1619 -22.2573 -22.2573 -22.2467 -22.2467 -22.0977 -22.0977
    -6.8072  -6.7908  -6.5360  -6.5294  -6.4393  -6.4341  -5.1119  -5.1116
    -4.3999  -4.3773  -0.3095  -0.2993   0.2464   0.2532   1.0076   1.0222
     1.4639   1.5772   2.1058   2.2436   2.3142   2.3860   2.6090   2.6590
     2.9022   3.0082   3.1455   3.2307   3.4595   3.4941   3.6068   3.6542
     4.1539   4.3385   6.4413   6.4761   6.6381   6.7214   7.2722   7.2752
     7.5163   7.5693

          k = 1.0162 0.1290-0.2971 ( 36516 PWs)   bands (ev):

   -44.1619 -44.1619 -22.2573 -22.2573 -22.2467 -22.2467 -22.0977 -22.0977
    -6.7940  -6.7940  -6.5540  -6.5540  -6.4201  -6.4201  -5.1106  -5.1106
    -4.3903  -4.3903  -0.3619  -0.3619   0.3915   0.3915   0.9934   0.9934
     1.4956   1.4956   2.0279   2.0279   2.3217   2.3217   2.7147   2.7147
     2.7998   2.7998   3.2259   3.2259   3.6055   3.6055   3.7435   3.7435
     4.3371   4.3371   6.1404   6.1404   6.5771   6.5771   7.2825   7.2825
     7.6552   7.6552

          k =-0.7622-0.3224 0.0000 ( 36511 PWs)   bands (ev):

   -44.1622 -44.1622 -22.2593 -22.2593 -22.2373 -22.2373 -22.0988 -22.0987
    -7.4191  -7.2894  -6.7931  -6.7065  -5.7712  -5.6494  -5.1596  -5.0929
    -4.4711  -4.4126  -0.3971  -0.0186   0.0376   0.8550   0.8751   1.3045
     1.5017   1.6670   2.0891   2.1050   2.2111   2.3047   2.4839   2.8630
     3.0535   3.1684   3.3381   3.4003   3.5124   3.6101   3.6925   3.7108
     4.0721   4.5784   6.3742   6.5774   6.6504   6.9184   7.0493   7.1356
     7.4023   7.5353

          k =-0.7622-0.3224 0.1485 ( 36492 PWs)   bands (ev):

   -44.1622 -44.1622 -22.2593 -22.2593 -22.2373 -22.2373 -22.0987 -22.0987
    -7.4028  -7.3118  -6.7780  -6.7174  -5.7499  -5.6633  -5.1541  -5.1078
    -4.4615  -4.4204  -0.3586  -0.0920   0.1469   0.7423   0.8953   1.2422
     1.5230   1.6022   2.0172   2.0845   2.2151   2.5348   2.6928   2.9376
     2.9724   3.0411   3.2481   3.2904   3.4735   3.5738   3.8020   3.8803
     4.0936   4.4816   6.1840   6.5424   6.7739   6.9650   7.0803   7.1752
     7.2737   7.5956

          k =-0.7622-0.3224-0.2971 ( 36508 PWs)   bands (ev):

   -44.1622 -44.1622 -22.2593 -22.2593 -22.2373 -22.2373 -22.0987 -22.0987
    -7.3601  -7.3601  -6.7457  -6.7457  -5.7029  -5.7029  -5.1355  -5.1355
    -4.4402  -4.4402  -0.2423  -0.2423   0.4273   0.4273   1.0499   1.0499
     1.5575   1.5575   2.0354   2.0354   2.4738   2.4738   2.8570   2.8570
     2.9714   2.9714   3.1884   3.1884   3.5827   3.5827   3.9222   3.9222
     4.1861   4.1861   6.4894   6.4894   6.5891   6.5891   7.1462   7.1462
     7.5600   7.5600

          k =-0.5081-0.2579 0.0000 ( 36480 PWs)   bands (ev):

   -44.1631 -44.1631 -22.2641 -22.2640 -22.2148 -22.2148 -22.1013 -22.1012
    -8.0346  -7.9056  -6.9297  -6.8372  -5.7621  -5.2117  -4.9714  -4.6023
    -4.5313  -4.5310  -0.2675   0.2584   0.7180   0.7667   1.1754   1.4223
     1.6480   1.6689   1.7755   2.0535   2.1343   2.5191   2.6423   3.3542
     3.4836   3.4988   3.5968   3.6943   3.7746   3.7920   4.1093   4.1940
     4.2761   4.7914   6.0232   6.2691   6.3214   6.7057   6.8069   7.0356
     7.3741   7.4643

          k =-0.5081-0.2579 0.1485 ( 36485 PWs)   bands (ev):

   -44.1631 -44.1631 -22.2641 -22.2640 -22.2148 -22.2148 -22.1013 -22.1012
    -8.0178  -7.9269  -6.9136  -6.8486  -5.7089  -5.3576  -4.8534  -4.6037
    -4.5782  -4.5070  -0.2038   0.1839   0.7173   0.8211   1.1331   1.2280
     1.5070   1.6576   1.9854   2.0582   2.2987   2.5759   2.9051   3.2529
     3.4121   3.5169   3.5397   3.6847   3.7408   3.7846   4.0139   4.2109
     4.2826   4.4931   6.3410   6.3494   6.4524   6.7051   6.8551   6.9377
     7.2221   7.4769

          k =-0.5081-0.2579-0.2971 ( 36478 PWs)   bands (ev):

   -44.1631 -44.1631 -22.2641 -22.2641 -22.2148 -22.2148 -22.1012 -22.1012
    -7.9746  -7.9746  -6.8787  -6.8787  -5.5613  -5.5613  -4.7106  -4.7106
    -4.5320  -4.5320  -0.0259  -0.0259   0.8897   0.8897   0.9802   0.9802
     1.5743   1.5743   2.0375   2.0375   2.6536   2.6536   3.1402   3.1402
     3.3600   3.3600   3.6027   3.6027   3.7255   3.7255   4.0250   4.0250
     4.3332   4.3332   6.5023   6.5023   6.6534   6.6534   6.8629   6.8629
     7.3221   7.3221

          k =-0.2541-0.1934 0.0000 ( 36410 PWs)   bands (ev):

   -44.1640 -44.1640 -22.2687 -22.2687 -22.1922 -22.1922 -22.1038 -22.1037
    -8.4227  -8.2900  -7.0749  -6.9592  -5.9149  -5.3385  -4.7293  -4.6536
    -4.6137  -3.9218   0.2222   0.5590   0.9624   1.0186   1.1018   1.3514
     1.3601   1.6160   1.7599   2.5836   2.6395   3.1292   3.4229   3.6622
     3.7415   3.7671   3.9130   3.9219   3.9631   4.2250   4.2779   4.4213
     4.4777   4.7043   6.0386   6.0728   6.1996   6.2154   6.3881   6.8525
     7.0384   7.2018

          k =-0.2541-0.1934 0.1485 ( 36427 PWs)   bands (ev):

   -44.1640 -44.1640 -22.2687 -22.2687 -22.1922 -22.1922 -22.1038 -22.1037
    -8.4053  -8.3118  -7.0544  -6.9732  -5.8580  -5.4744  -4.7173  -4.6594
    -4.4683  -3.9987   0.2901   0.5383   0.8152   1.0264   1.0882   1.2336
     1.3980   1.7249   2.0289   2.5839   2.6293   2.9185   3.4528   3.4892
     3.5651   3.8322   3.8922   3.9160   4.0588   4.2294   4.4250   4.4693
     4.5787   4.7931   5.9176   5.9582   6.1457   6.2468   6.2816   6.8627
     7.1813   7.2079

          k =-0.2541-0.1934-0.2971 ( 36422 PWs)   bands (ev):

   -44.1640 -44.1640 -22.2687 -22.2687 -22.1922 -22.1922 -22.1037 -22.1037
    -8.3607  -8.3607  -7.0105  -7.0105  -5.6967  -5.6967  -4.6882  -4.6882
    -4.2053  -4.2053   0.4470   0.4470   0.7884   0.7884   1.1757   1.1757
     1.6211   1.6211   2.4747   2.4747   2.6440   2.6440   3.3220   3.3220
     3.7540   3.7540   3.8686   3.8686   4.1881   4.1881   4.4489   4.4489
     4.8766   4.8766   5.7475   5.7475   6.1823   6.1823   6.5282   6.5282
     7.3201   7.3201

          k = 0.0000-0.1290 0.0000 ( 36417 PWs)   bands (ev):

   -44.1643 -44.1643 -22.2707 -22.2707 -22.1828 -22.1827 -22.1049 -22.1047
    -8.5549  -8.4203  -7.1373  -7.0099  -5.9667  -5.3856  -4.7646  -4.7000
    -4.5391  -3.7085   0.1478   0.8580   0.9079   1.1637   1.1955   1.4313
     1.4896   1.5541   2.2558   2.8526   2.9243   2.9312   3.1401   3.4928
     3.9532   4.0136   4.0153   4.0201   4.2849   4.4311   4.5239   4.6176
     4.7841   5.0508   5.6243   5.8281   5.8824   6.0016   6.2310   6.5905
     7.2037   7.2046

          k = 0.0000-0.1290 0.1485 ( 36419 PWs)   bands (ev):

   -44.1643 -44.1643 -22.2707 -22.2707 -22.1828 -22.1827 -22.1048 -22.1047
    -8.5373  -8.4424  -7.1146  -7.0251  -5.9101  -5.5225  -4.7525  -4.7074
    -4.3750  -3.8091   0.2295   0.8277   0.9467   0.9888   1.1653   1.4393
     1.4805   1.8336   1.9951   2.8643   2.9149   2.9420   3.3191   3.5714
     3.8811   3.9878   4.0251   4.0570   4.3308   4.3481   4.5023   4.6715
     4.7262   4.7710   5.8122   5.8513   5.8759   6.2171   6.3492   6.4792
     6.9970   7.0129

          k = 0.0000-0.1290-0.2971 ( 36464 PWs)   bands (ev):

   -44.1643 -44.1643 -22.2707 -22.2707 -22.1828 -22.1828 -22.1048 -22.1048
    -8.4921  -8.4921  -7.0662  -7.0662  -5.7479  -5.7479  -4.7292  -4.7292
    -4.0672  -4.0672   0.4664   0.4664   1.0364   1.0364   1.3778   1.3778
     1.4594   1.4594   2.4921   2.4921   2.8907   2.8907   3.6854   3.6854
     3.8687   3.8687   4.1621   4.1621   4.1736   4.1736   4.4898   4.4898
     4.7330   4.7330   5.8498   5.8498   6.1732   6.1732   6.6291   6.6291
     6.6449   6.6449

          k = 1.0162 0.0000 0.0000 ( 36499 PWs)   bands (ev):

   -44.1619 -44.1619 -22.2573 -22.2573 -22.2467 -22.2467 -22.0977 -22.0977
    -6.8147  -6.7926  -6.4980  -6.4949  -6.4746  -6.4624  -5.1131  -5.1126
    -4.4028  -4.3708  -0.2310  -0.1955   0.0776   0.1054   1.0006   1.0364
     1.4834   1.6283   2.1771   2.3621   2.3710   2.3908   2.7354   2.9066
     2.9126   2.9229   3.1205   3.2198   3.2799   3.2863   3.4570   3.5764
     4.0384   4.3465   6.7313   6.8303   6.9275   7.0073   7.2392   7.2497
     7.2573   7.2608

          k = 1.0162 0.0000 0.1485 ( 36485 PWs)   bands (ev):

   -44.1619 -44.1619 -22.2573 -22.2573 -22.2467 -22.2467 -22.0977 -22.0977
    -6.8072  -6.7908  -6.5359  -6.5294  -6.4392  -6.4341  -5.1119  -5.1116
    -4.3999  -4.3773  -0.3112  -0.2978   0.2477   0.2523   1.0051   1.0246
     1.4722   1.5685   2.1095   2.2301   2.3199   2.3857   2.6127   2.6631
     2.8920   3.0191   3.1480   3.2242   3.4680   3.4755   3.6206   3.6530
     4.1375   4.3546   6.4405   6.4845   6.6343   6.7226   7.2735   7.2754
     7.5264   7.5581

          k = 1.0162 0.0000-0.2971 ( 36514 PWs)   bands (ev):

   -44.1619 -44.1619 -22.2573 -22.2573 -22.2467 -22.2467 -22.0977 -22.0977
    -6.7940  -6.7940  -6.5540  -6.5540  -6.4201  -6.4201  -5.1106  -5.1106
    -4.3903  -4.3903  -0.3620  -0.3620   0.3918   0.3918   0.9932   0.9932
     1.4968   1.4968   2.0276   2.0276   2.3191   2.3191   2.7029   2.7029
     2.8166   2.8166   3.2208   3.2208   3.6072   3.6072   3.7432   3.7432
     4.3380   4.3380   6.1439   6.1439   6.5760   6.5760   7.2831   7.2831
     7.6536   7.6536

          k = 1.2703 0.0645 0.0000 ( 36468 PWs)   bands (ev):

   -44.1622 -44.1622 -22.2593 -22.2593 -22.2373 -22.2373 -22.0988 -22.0987
    -7.4161  -7.2888  -6.7965  -6.7070  -5.7705  -5.6509  -5.1608  -5.0927
    -4.4759  -4.4071  -0.4046  -0.0247   0.0378   0.8358   0.8834   1.2949
     1.5008   1.7229   2.1242   2.1336   2.2619   2.2805   2.4061   2.8950
     3.0528   3.1816   3.3548   3.3848   3.5118   3.5619   3.6526   3.6812
     4.1748   4.5490   6.3756   6.6038   6.6452   6.8623   7.0764   7.2078
     7.3759   7.5064

          k = 1.2703 0.0645 0.1485 ( 36490 PWs)   bands (ev):

   -44.1622 -44.1622 -22.2593 -22.2593 -22.2373 -22.2373 -22.0987 -22.0987
    -7.4000  -7.3107  -6.7811  -6.7185  -5.7494  -5.6643  -5.1551  -5.1078
    -4.4649  -4.4166  -0.3660  -0.0988   0.1489   0.7506   0.8776   1.2319
     1.5300   1.6207   2.0549   2.1195   2.2368   2.5269   2.6495   2.9607
     2.9758   3.0700   3.2396   3.2594   3.4789   3.5360   3.7863   3.8450
     4.1621   4.4879   6.1636   6.5733   6.7440   6.9614   7.0724   7.2301
     7.2774   7.5361

          k = 1.2703 0.0645-0.2971 ( 36480 PWs)   bands (ev):

   -44.1622 -44.1622 -22.2593 -22.2593 -22.2373 -22.2373 -22.0987 -22.0987
    -7.3581  -7.3581  -6.7480  -6.7480  -5.7029  -5.7029  -5.1362  -5.1362
    -4.4401  -4.4401  -0.2494  -0.2494   0.4321   0.4321   1.0379   1.0379
     1.5632   1.5632   2.0765   2.0765   2.4779   2.4779   2.8583   2.8583
     2.9868   2.9868   3.1551   3.1551   3.5752   3.5752   3.8887   3.8887
     4.2320   4.2320   6.4685   6.4685   6.5872   6.5872   7.1810   7.1810
     7.4946   7.4946

          k =-0.5081-0.3869 0.0000 ( 36463 PWs)   bands (ev):

   -44.1631 -44.1631 -22.2641 -22.2640 -22.2148 -22.2148 -22.1013 -22.1012
    -8.0318  -7.9049  -6.9305  -6.8361  -5.7689  -5.2139  -4.9764  -4.6092
    -4.5326  -4.5213  -0.2766   0.2748   0.7048   0.7529   1.1836   1.5440
     1.6586   1.6998   1.8106   2.0303   2.1520   2.5164   2.6251   3.2760
     3.4894   3.5202   3.5862   3.5976   3.7229   3.7995   4.0974   4.1835
     4.2632   4.8171   6.0124   6.2009   6.3873   6.8044   6.9474   6.9474
     7.3490   7.4208

          k =-0.5081-0.3869 0.1485 ( 36477 PWs)   bands (ev):

   -44.1631 -44.1631 -22.2641 -22.2640 -22.2148 -22.2148 -22.1013 -22.1012
    -8.0152  -7.9258  -6.9144  -6.8481  -5.7148  -5.3602  -4.8597  -4.6044
    -4.5820  -4.5001  -0.2109   0.1940   0.7077   0.8124   1.1318   1.2509
     1.6301   1.7302   1.9466   2.0266   2.3572   2.5675   2.8889   3.1984
     3.3673   3.5236   3.5394   3.6058   3.7338   3.7481   4.0793   4.1494
     4.2487   4.5251   6.2862   6.3872   6.4455   6.7948   6.8396   7.0050
     7.1781   7.4498

          k =-0.5081-0.3869-0.2971 ( 36492 PWs)   bands (ev):

   -44.1631 -44.1631 -22.2641 -22.2641 -22.2148 -22.2148 -22.1012 -22.1012
    -7.9726  -7.9726  -6.8792  -6.8792  -5.5652  -5.5652  -4.7166  -4.7166
    -4.5281  -4.5281  -0.0270  -0.0270   0.8971   0.8971   0.9712   0.9712
     1.6827   1.6827   1.9991   1.9991   2.7081   2.7081   3.0548   3.0548
     3.3513   3.3513   3.5908   3.5908   3.6845   3.6845   4.0537   4.0537
     4.3079   4.3079   6.4727   6.4727   6.7050   6.7050   6.8428   6.8428
     7.3361   7.3362

          k =-0.2541-0.3224 0.0000 ( 36485 PWs)   bands (ev):

   -44.1640 -44.1640 -22.2687 -22.2687 -22.1922 -22.1922 -22.1038 -22.1037
    -8.4199  -8.2893  -7.0715  -6.9565  -5.9303  -5.3456  -4.7494  -4.6413
    -4.6098  -3.9226   0.2475   0.5508   0.9698   1.0335   1.2006   1.3856
     1.4088   1.7039   1.7781   2.5213   2.5958   3.1647   3.4987   3.5863
     3.6302   3.6526   3.7930   3.9171   3.9678   4.1479   4.1808   4.3564
     4.4073   4.7635   6.0920   6.1669   6.1774   6.3246   6.4295   6.9207
     6.9612   7.1216

          k =-0.2541-0.3224 0.1485 ( 36445 PWs)   bands (ev):

   -44.1640 -44.1640 -22.2687 -22.2687 -22.1922 -22.1922 -22.1038 -22.1037
    -8.4027  -8.3107  -7.0515  -6.9707  -5.8719  -5.4821  -4.7323  -4.6516
    -4.4660  -3.9989   0.3163   0.5354   0.8143   1.0565   1.1855   1.2857
     1.4386   1.7487   2.0891   2.5238   2.5880   2.9511   3.4388   3.4723
     3.6332   3.6380   3.6888   3.9161   4.0123   4.1666   4.3623   4.4005
     4.5579   4.8401   5.9308   5.9488   6.1913   6.3167   6.3884   6.8165
     7.1715   7.1931

          k =-0.2541-0.3224-0.2971 ( 36442 PWs)   bands (ev):

   -44.1640 -44.1640 -22.2687 -22.2687 -22.1922 -22.1922 -22.1037 -22.1037
    -8.3589  -8.3589  -7.0083  -7.0083  -5.7072  -5.7072  -4.6919  -4.6919
    -4.2042  -4.2042   0.4646   0.4646   0.7993   0.7993   1.2590   1.2590
     1.6454   1.6454   2.4817   2.4817   2.6343   2.6343   3.3120   3.3120
     3.6274   3.6274   3.8282   3.8282   4.1309   4.1309   4.3848   4.3848
     4.8970   4.8970   5.7358   5.7358   6.2340   6.2340   6.5524   6.5524
     7.3111   7.3111

          k = 0.0000-0.2579 0.0000 ( 36445 PWs)   bands (ev):

   -44.1643 -44.1643 -22.2707 -22.2707 -22.1828 -22.1827 -22.1049 -22.1047
    -8.5524  -8.4197  -7.1325  -7.0070  -5.9837  -5.3941  -4.7818  -4.6867
    -4.5393  -3.7090   0.1748   0.8640   1.0152   1.1902   1.2508   1.4306
     1.4889   1.6271   2.2465   2.8700   2.9346   2.9354   3.1452   3.5991
     3.6683   3.7199   3.9868   4.0030   4.1617   4.4023   4.4321   4.5837
     4.7803   5.0275   5.6650   5.9133   5.9706   6.0717   6.2513   6.6315
     7.0689   7.2038

          k = 0.0000-0.2579 0.1485 ( 36452 PWs)   bands (ev):

   -44.1643 -44.1643 -22.2707 -22.2707 -22.1828 -22.1827 -22.1048 -22.1047
    -8.5350  -8.4415  -7.1104  -7.0222  -5.9256  -5.5317  -4.7667  -4.6984
    -4.3747  -3.8092   0.2587   0.8660   0.9898   1.0556   1.2258   1.4387
     1.4798   1.8475   2.0358   2.8807   2.9263   2.9587   3.2947   3.6245
     3.6951   3.7421   3.9287   4.0296   4.2281   4.3160   4.3939   4.6545
     4.7166   4.7667   5.8687   5.9128   5.9568   6.2337   6.3661   6.5192
     6.8995   7.0006

          k = 0.0000-0.2579-0.2971 ( 36454 PWs)   bands (ev):

   -44.1643 -44.1643 -22.2707 -22.2707 -22.1828 -22.1828 -22.1048 -22.1048
    -8.4904  -8.4904  -7.0630  -7.0630  -5.7600  -5.7600  -4.7322  -4.7322
    -4.0668  -4.0668   0.5011   0.5011   1.1146   1.1146   1.3890   1.3890
     1.4587   1.4587   2.5275   2.5275   2.9046   2.9046   3.5917   3.5917
     3.7850   3.7850   4.0559   4.0559   4.1500   4.1500   4.4120   4.4120
     4.7257   4.7257   5.9161   5.9161   6.2144   6.2144   6.5752   6.5752
     6.6550   6.6550

          k = 1.5243 0.0000 0.0000 ( 36439 PWs)   bands (ev):

   -44.1631 -44.1631 -22.2641 -22.2640 -22.2148 -22.2148 -22.1013 -22.1012
    -8.0306  -7.9047  -6.9310  -6.8355  -5.7717  -5.2149  -4.9784  -4.6115
    -4.5331  -4.5179  -0.2803   0.2815   0.7014   0.7452   1.1871   1.6110
     1.6730   1.7129   1.7949   2.0194   2.1804   2.4959   2.6173   3.2515
     3.4755   3.5402   3.5501   3.5988   3.6998   3.8042   4.0513   4.2164
     4.2576   4.8268   6.0084   6.1693   6.4189   6.8487   6.9119   7.0174
     7.3227   7.4732

          k = 1.5243 0.0000 0.1485 ( 36476 PWs)   bands (ev):

   -44.1631 -44.1631 -22.2641 -22.2640 -22.2148 -22.2148 -22.1013 -22.1012
    -8.0141  -7.9254  -6.9149  -6.8478  -5.7172  -5.3612  -4.8622  -4.6048
    -4.5832  -4.4975  -0.2138   0.1981   0.7046   0.8077   1.1321   1.2598
     1.7183   1.7456   1.9204   2.0019   2.4098   2.5337   2.8782   3.1876
     3.3315   3.5323   3.5388   3.5836   3.7301   3.7349   4.0712   4.1577
     4.2327   4.5382   6.2590   6.4052   6.4451   6.8029   6.8389   7.0832
     7.1355   7.4667

          k = 1.5243 0.0000-0.2971 ( 36508 PWs)   bands (ev):

   -44.1631 -44.1631 -22.2641 -22.2641 -22.2148 -22.2148 -22.1012 -22.1012
    -7.9718  -7.9718  -6.8794  -6.8794  -5.5669  -5.5669  -4.7190  -4.7190
    -4.5265  -4.5265  -0.0275  -0.0275   0.9004   0.9004   0.9673   0.9673
     1.7436   1.7436   1.9683   1.9683   2.7440   2.7440   3.0000   3.0000
     3.3508   3.3508   3.5829   3.5829   3.6743   3.6743   4.0591   4.0591
     4.3033   4.3033   6.4606   6.4606   6.7102   6.7102   6.8463   6.8463
     7.3541   7.3542

          k =-0.2541-0.4514 0.0000 ( 36444 PWs)   bands (ev):

   -44.1640 -44.1640 -22.2687 -22.2687 -22.1922 -22.1922 -22.1038 -22.1037
    -8.4179  -8.2888  -7.0695  -6.9540  -5.9414  -5.3505  -4.7617  -4.6292
    -4.6124  -3.9232   0.2613   0.5455   0.9754   1.0401   1.3105   1.4093
     1.4229   1.7840   1.8092   2.4562   2.5261   3.2329   3.4397   3.4702
     3.5540   3.6207   3.8659   3.9119   3.9711   4.0573   4.1094   4.2822
     4.3917   4.8021   6.1267   6.1554   6.2493   6.3884   6.4551   6.8860
     6.9657   7.0761

          k =-0.2541-0.4514 0.1485 ( 36461 PWs)   bands (ev):

   -44.1640 -44.1640 -22.2687 -22.2687 -22.1922 -22.1922 -22.1038 -22.1037
    -8.4009  -8.3100  -7.0498  -6.9686  -5.8818  -5.4875  -4.7414  -4.6474
    -4.4646  -3.9990   0.3311   0.5333   0.8137   1.0783   1.2405   1.3548
     1.4758   1.7762   2.1527   2.4617   2.5144   2.9959   3.3724   3.4135
     3.5189   3.5857   3.7679   3.9135   3.9933   4.0615   4.3136   4.3789
     4.5449   4.8711   5.9385   5.9423   6.2286   6.3528   6.4519   6.7596
     7.1793   7.1885

          k =-0.2541-0.4514-0.2971 ( 36490 PWs)   bands (ev):

   -44.1640 -44.1640 -22.2687 -22.2687 -22.1922 -22.1922 -22.1037 -22.1037
    -8.3575  -8.3575  -7.0066  -7.0066  -5.7145  -5.7145  -4.6946  -4.6946
    -4.2034  -4.2034   0.4746   0.4746   0.8050   0.8050   1.3301   1.3301
     1.6736   1.6736   2.4724   2.4724   2.6248   2.6248   3.2844   3.2844
     3.4973   3.4973   3.8972   3.8972   4.0573   4.0573   4.3493   4.3493
     4.9100   4.9100   5.7299   5.7299   6.2479   6.2479   6.5705   6.5705
     7.3101   7.3101

          k = 0.0000-0.3869 0.0000 ( 36477 PWs)   bands (ev):

   -44.1644 -44.1643 -22.2707 -22.2707 -22.1828 -22.1827 -22.1049 -22.1047
    -8.5499  -8.4191  -7.1281  -7.0033  -6.0011  -5.4026  -4.7962  -4.6749
    -4.5408  -3.7095   0.1944   0.8725   1.1574   1.2137   1.3168   1.4300
     1.4883   1.7026   2.2386   2.8888   2.9444   2.9488   3.1492   3.3401
     3.4503   3.7502   3.9580   4.0274   4.0301   4.2425   4.4330   4.5499
     4.7765   5.0098   5.7060   5.9725   6.0263   6.1586   6.2720   6.6675
     6.9157   7.2039

          k = 0.0000-0.3869 0.1485 ( 36452 PWs)   bands (ev):

   -44.1643 -44.1643 -22.2707 -22.2707 -22.1828 -22.1827 -22.1048 -22.1047
    -8.5327  -8.4405  -7.1066  -7.0188  -5.9412  -5.5408  -4.7783  -4.6920
    -4.3745  -3.8094   0.2802   0.8968   1.0034   1.1952   1.2965   1.4380
     1.4792   1.8597   2.0853   2.8982   2.9375   2.9817   3.2345   3.3488
     3.4684   3.8261   3.9597   4.0018   4.1184   4.2408   4.2995   4.6392
     4.7126   4.7625   5.9240   5.9581   6.0049   6.2547   6.3834   6.5515
     6.7712   7.0041

          k = 0.0000-0.3869-0.2971 ( 36454 PWs)   bands (ev):

   -44.1643 -44.1643 -22.2707 -22.2707 -22.1828 -22.1828 -22.1048 -22.1048
    -8.4887  -8.4887  -7.0598  -7.0598  -5.7719  -5.7719  -4.7352  -4.7352
    -4.0664  -4.0664   0.5280   0.5280   1.2150   1.2150   1.4069   1.4069
     1.4581   1.4581   2.5701   2.5701   2.9191   2.9191   3.3140   3.3140
     3.8265   3.8265   4.0225   4.0225   4.1255   4.1255   4.3298   4.3298
     4.7189   4.7189   5.9552   5.9552   6.2623   6.2623   6.5039   6.5039
     6.6654   6.6654

          k =-2.0325 0.0000 0.0000 ( 36452 PWs)   bands (ev):

   -44.1644 -44.1643 -22.2707 -22.2707 -22.1828 -22.1827 -22.1049 -22.1047
    -8.5489  -8.4188  -7.1264  -7.0015  -6.0084  -5.4061  -4.8017  -4.6701
    -4.5418  -3.7097   0.2005   0.8767   1.2226   1.2751   1.2939   1.4297
     1.4880   1.7464   2.2361   2.8972   2.9482   2.9573   3.1190   3.2305
     3.3386   3.8977   3.9183   3.9459   4.0366   4.1475   4.4334   4.5359
     4.7750   5.0032   5.7230   5.9918   6.0435   6.2047   6.2807   6.6809
     6.8426   7.2038

          k =-2.0325 0.0000 0.1485 ( 36456 PWs)   bands (ev):

   -44.1644 -44.1643 -22.2707 -22.2707 -22.1828 -22.1827 -22.1048 -22.1047
    -8.5318  -8.4401  -7.1051  -7.0173  -5.9477  -5.5445  -4.7826  -4.6897
    -4.3745  -3.8094   0.2870   0.9094   1.0083   1.2891   1.3072   1.4378
     1.4789   1.8647   2.1127   2.9060   2.9420   2.9908   3.1431   3.2504
     3.4004   3.9239   3.9665   3.9901   4.0797   4.1327   4.2921   4.6333
     4.7113   4.7608   5.9495   5.9730   6.0181   6.2676   6.3907   6.5617
     6.7121   7.0056

          k =-2.0325 0.0000-0.2971 ( 36460 PWs)   bands (ev):

   -44.1643 -44.1643 -22.2707 -22.2707 -22.1828 -22.1828 -22.1048 -22.1048
    -8.4880  -8.4880  -7.0584  -7.0584  -5.7769  -5.7769  -4.7365  -4.7365
    -4.0662  -4.0662   0.5369   0.5369   1.2624   1.2624   1.4196   1.4196
     1.4578   1.4578   2.5929   2.5929   2.9252   2.9252   3.1824   3.1824
     3.8507   3.8507   4.0138   4.0138   4.1152   4.1152   4.2941   4.2941
     4.7162   4.7162   5.9669   5.9669   6.2876   6.2876   6.4661   6.4661
     6.6697   6.6697

     the Fermi energy is     5.3541 ev

!    total energy              =   -4240.90353412 Ry

     total all-electron energy =   -150287.597229 Ry
     estimated scf accuracy    <          8.4E-13 Ry
     smearing contrib. (-TS)   =       0.00000000 Ry
     internal energy E=F+TS    =   -4240.90353412 Ry

     The total energy is F=E-TS. E is the sum of the following terms:
     one-electron contribution =    -169.47763902 Ry
     hartree contribution      =     118.16974259 Ry
     xc contribution           =    -201.68941227 Ry
     ewald contribution        =    -220.35047228 Ry
     one-center paw contrib.   =   -3767.55575314 Ry

     convergence has been achieved in  17 iterations

     Forces acting on atoms (cartesian axes, Ry/au):

     atom    1 type  1   force =     0.00000000    0.02692120    0.00000000
     atom    2 type  1   force =     0.00000000   -0.02692120    0.00000000
     atom    3 type  2   force =     0.00000000   -0.00046558    0.00000000
     atom    4 type  2   force =     0.00000000    0.00046558    0.00000000
     atom    5 type  2   force =     0.00000000   -0.00630534   -0.00478084
     atom    6 type  2   force =     0.00000000    0.00630534    0.00478084
     atom    7 type  2   force =     0.00000000   -0.00630534    0.00478084
     atom    8 type  2   force =     0.00000000    0.00630534   -0.00478084
     atom    9 type  2   force =     0.00000000   -0.05349129   -0.06548109
     atom   10 type  2   force =     0.00000000    0.05349129    0.06548109
     atom   11 type  2   force =     0.00000000   -0.05349129    0.06548109
     atom   12 type  2   force =     0.00000000    0.05349129   -0.06548109

     Total force =     0.174060     Total SCF correction =     0.000001


     Computing stress (Cartesian axis) and pressure

          total   stress  (Ry/bohr**3)                   (kbar)     P=       15.78
   0.00013885   0.00000000   0.00000000           20.43        0.00        0.00
   0.00000000   0.00004912   0.00000000            0.00        7.23        0.00
   0.00000000   0.00000000   0.00013391            0.00        0.00       19.70

 
     init_run     :     35.31s CPU     35.98s WALL (       1 calls)
     electrons    :   1639.53s CPU   1657.49s WALL (       1 calls)
     forces       :      7.83s CPU      8.12s WALL (       1 calls)
     stress       :     46.95s CPU     47.62s WALL (       1 calls)

     Called by init_run:
     wfcinit      :     30.50s CPU     30.76s WALL (       1 calls)
     potinit      :      1.55s CPU      1.60s WALL (       1 calls)
     hinit0       :      1.53s CPU      1.60s WALL (       1 calls)

     Called by electrons:
     c_bands      :   1318.46s CPU   1326.02s WALL (      18 calls)
     sum_band     :    286.48s CPU    292.59s WALL (      18 calls)
     v_of_rho     :      8.81s CPU      9.41s WALL (      18 calls)
     newd         :     18.34s CPU     22.21s WALL (      18 calls)
     PAW_pot      :      6.90s CPU      6.91s WALL (      18 calls)
     mix_rho      :      1.59s CPU      1.62s WALL (      18 calls)

     Called by c_bands:
     init_us_2    :     13.68s CPU     13.76s WALL (    2457 calls)
     cegterg      :   1240.98s CPU   1247.79s WALL (    1134 calls)

     Called by *egterg:
     cdiaghg      :     26.99s CPU     27.12s WALL (    7652 calls)
     h_psi        :   1072.19s CPU   1078.75s WALL (    7778 calls)
     s_psi        :     49.10s CPU     49.17s WALL (    7778 calls)
     g_psi        :      2.13s CPU      2.15s WALL (    6581 calls)

     Called by h_psi:
     h_psi:calbec :     41.81s CPU     41.91s WALL (    7778 calls)
     vloc_psi     :    977.74s CPU    984.05s WALL (    7778 calls)
     add_vuspsi   :     48.75s CPU     48.83s WALL (    7778 calls)

     General routines
     calbec       :     55.95s CPU     56.09s WALL (    9227 calls)
     fft          :      7.99s CPU      8.25s WALL (     258 calls)
     ffts         :      0.21s CPU      0.21s WALL (      36 calls)
     fftw         :    983.82s CPU    990.00s WALL (  407460 calls)
     interpolate  :      0.66s CPU      0.66s WALL (      18 calls)
 
     Parallel routines
     fft_scatt_xy :    261.58s CPU    263.25s WALL (  407754 calls)
     fft_scatt_yz :    193.27s CPU    194.83s WALL (  407754 calls)
 
     PWSCF        :  28m50.19s CPU  29m16.44s WALL

 
   This run was terminated on:  15:15:35  19Nov2021            

=------------------------------------------------------------------------------=
   JOB DONE.
=------------------------------------------------------------------------------=
