
     Program PWSCF v.6.7MaX starts on 19Nov2021 at 14:46:27 

     This program is part of the open-source Quantum ESPRESSO suite
     for quantum simulation of materials; please cite
         "P. Giannozzi et al., J. Phys.:Condens. Matter 21 395502 (2009);
         "P. Giannozzi et al., J. Phys.:Condens. Matter 29 465901 (2017);
          URL http://www.quantum-espresso.org", 
     in publications or presentations arising from this work. More details at
     http://www.quantum-espresso.org/quote

     Parallel version (MPI), running on    10 processors

     MPI processes distributed on     1 nodes
     R & G space division:  proc/nbgrp/npool/nimage =      10
     Waiting for input...
     Reading input from standard input

     Current dimensions of program PWSCF are:
     Max number of different atomic species (ntypx) = 10
     Max number of k-points (npk) =  40000
     Max angular momentum in pseudopotentials (lmaxx) =  3
     file Zr.pbe-spn-kjpaw_psl.1.0.0.UPF: wavefunction(s)  4S 4P renormalized
     file Te.pbe-n-kjpaw_psl.1.0.0.UPF: wavefunction(s)  5S 5P renormalized

     Subspace diagonalization in iterative solution of the eigenvalue problem:
     a serial algorithm will be used

     Message from routine setup:
     using ibrav=0 with symmetry is DISCOURAGED, use correct ibrav instead
 
     Parallelization info
     --------------------
     sticks:   dense  smooth     PW     G-vecs:    dense   smooth      PW
     Min         734     293     87               115340    29174    4753
     Max         735     295     88               115345    29176    4760
     Sum        7345    2937    873              1153415   291749   47557
 


     bravais-lattice index     =            0
     lattice parameter (alat)  =      15.5510  a.u.
     unit-cell volume          =    3018.5011 (a.u.)^3
     number of atoms/cell      =           12
     number of atomic types    =            2
     number of electrons       =        84.00
     number of Kohn-Sham states=           50
     kinetic-energy cutoff     =      80.0000  Ry
     charge density cutoff     =     800.0000  Ry
     scf convergence threshold =      1.0E-10
     mixing beta               =       0.7000
     number of iterations used =            8  plain     mixing
     Exchange-correlation= SLA  PW   PBX  PBC
                           (   1   4   3   4   0   0   0)

     celldm(1)=  15.551040  celldm(2)=   0.000000  celldm(3)=   0.000000
     celldm(4)=   0.000000  celldm(5)=   0.000000  celldm(6)=   0.000000

     crystal axes: (cart. coord. in units of alat)
               a(1) = (   0.246007  -0.969268   0.000000 )  
               a(2) = (   0.246007   0.969268   0.000000 )  
               a(3) = (   0.000000   0.000000   1.683031 )  

     reciprocal axes: (cart. coord. in units 2 pi/alat)
               b(1) = (  2.032465 -0.515853  0.000000 )  
               b(2) = (  2.032465  0.515853  0.000000 )  
               b(3) = (  0.000000  0.000000  0.594166 )  


     PseudoPot. # 1 for Zr read from file:
     pseudo/Zr.pbe-spn-kjpaw_psl.1.0.0.UPF
     MD5 check sum: 02112c41713a0468aff2bb39ef194e36
     Pseudo is Projector augmented-wave + core cor, Zval = 12.0
     Generated using &quot;atomic&quot; code by A. Dal Corso  v.6.2.2
     Shape of augmentation charge: PSQ
     Using radial grid of 1225 points,  6 beta functions with: 
                l(1) =   0
                l(2) =   0
                l(3) =   1
                l(4) =   1
                l(5) =   2
                l(6) =   2
     Q(r) pseudized with 0 coefficients 


     PseudoPot. # 2 for Te read from file:
     pseudo/Te.pbe-n-kjpaw_psl.1.0.0.UPF
     MD5 check sum: 66247bff2bd9dbf220fbb0bf5ab56e9d
     Pseudo is Projector augmented-wave + core cor, Zval =  6.0
     Generated using &quot;atomic&quot; code by A. Dal Corso  v.6.3
     Shape of augmentation charge: PSQ
     Using radial grid of 1245 points,  6 beta functions with: 
                l(1) =   0
                l(2) =   0
                l(3) =   1
                l(4) =   1
                l(5) =   2
                l(6) =   2
     Q(r) pseudized with 0 coefficients 


     atomic species   valence    mass     pseudopotential
        Zr            12.00    91.22000     Zr( 1.00)
        Te             6.00   127.60000     Te( 1.00)

      8 Sym. Ops., with inversion, found ( 4 have fractional translation)



   Cartesian axes

     site n.     atom                  positions (alat units)
         1           Zr  tau(   1) = (   0.0000000   0.5967670   0.4207578  )
         2           Zr  tau(   2) = (   0.2460067   0.3725011   1.2622733  )
         3           Te  tau(   3) = (   0.2460067   0.3340707   0.4207578  )
         4           Te  tau(   4) = (   0.0000000   0.6351974   1.2622733  )
         5           Te  tau(   5) = (   0.2460067   0.8138499   0.2548103  )
         6           Te  tau(   6) = (   0.0000000   0.1554182   1.4282208  )
         7           Te  tau(   7) = (   0.2460067   0.8138499   0.5867053  )
         8           Te  tau(   8) = (   0.0000000   0.1554182   1.0963258  )
         9           Te  tau(   9) = (   0.0000000   0.4303789   0.7456582  )
        10           Te  tau(  10) = (   0.2460067   0.5388892   0.9373729  )
        11           Te  tau(  11) = (   0.0000000   0.4303789   0.0958573  )
        12           Te  tau(  12) = (   0.2460067   0.5388892   1.5871737  )

     number of k points=    63  Methfessel-Paxton smearing, width (Ry)=  0.0030
                       cart. coord. in units 2pi/alat
        k(    1) = (   0.0000000   0.0000000   0.0000000), wk =   0.0078125
        k(    2) = (   0.0000000   0.0000000   0.1485415), wk =   0.0156250
        k(    3) = (   0.0000000   0.0000000  -0.2970830), wk =   0.0078125
        k(    4) = (   0.2540581   0.0644816   0.0000000), wk =   0.0312500
        k(    5) = (   0.2540581   0.0644816   0.1485415), wk =   0.0625000
        k(    6) = (   0.2540581   0.0644816  -0.2970830), wk =   0.0312500
        k(    7) = (   0.5081162   0.1289633   0.0000000), wk =   0.0312500
        k(    8) = (   0.5081162   0.1289633   0.1485415), wk =   0.0625000
        k(    9) = (   0.5081162   0.1289633  -0.2970830), wk =   0.0312500
        k(   10) = (   0.7621743   0.1934449   0.0000000), wk =   0.0312500
        k(   11) = (   0.7621743   0.1934449   0.1485415), wk =   0.0625000
        k(   12) = (   0.7621743   0.1934449  -0.2970830), wk =   0.0312500
        k(   13) = (  -1.0162324  -0.2579266   0.0000000), wk =   0.0156250
        k(   14) = (  -1.0162324  -0.2579266   0.1485415), wk =   0.0312500
        k(   15) = (  -1.0162324  -0.2579266  -0.2970830), wk =   0.0156250
        k(   16) = (   0.5081162   0.0000000   0.0000000), wk =   0.0156250
        k(   17) = (   0.5081162   0.0000000   0.1485415), wk =   0.0312500
        k(   18) = (   0.5081162   0.0000000  -0.2970830), wk =   0.0156250
        k(   19) = (   0.7621743   0.0644816   0.0000000), wk =   0.0312500
        k(   20) = (   0.7621743   0.0644816   0.1485415), wk =   0.0625000
        k(   21) = (   0.7621743   0.0644816  -0.2970830), wk =   0.0312500
        k(   22) = (   1.0162324   0.1289633   0.0000000), wk =   0.0312500
        k(   23) = (   1.0162324   0.1289633   0.1485415), wk =   0.0625000
        k(   24) = (   1.0162324   0.1289633  -0.2970830), wk =   0.0312500
        k(   25) = (  -0.7621743  -0.3224082   0.0000000), wk =   0.0312500
        k(   26) = (  -0.7621743  -0.3224082   0.1485415), wk =   0.0625000
        k(   27) = (  -0.7621743  -0.3224082  -0.2970830), wk =   0.0312500
        k(   28) = (  -0.5081162  -0.2579266   0.0000000), wk =   0.0312500
        k(   29) = (  -0.5081162  -0.2579266   0.1485415), wk =   0.0625000
        k(   30) = (  -0.5081162  -0.2579266  -0.2970830), wk =   0.0312500
        k(   31) = (  -0.2540581  -0.1934449   0.0000000), wk =   0.0312500
        k(   32) = (  -0.2540581  -0.1934449   0.1485415), wk =   0.0625000
        k(   33) = (  -0.2540581  -0.1934449  -0.2970830), wk =   0.0312500
        k(   34) = (   0.0000000  -0.1289633   0.0000000), wk =   0.0156250
        k(   35) = (   0.0000000  -0.1289633   0.1485415), wk =   0.0312500
        k(   36) = (   0.0000000  -0.1289633  -0.2970830), wk =   0.0156250
        k(   37) = (   1.0162324   0.0000000   0.0000000), wk =   0.0156250
        k(   38) = (   1.0162324   0.0000000   0.1485415), wk =   0.0312500
        k(   39) = (   1.0162324   0.0000000  -0.2970830), wk =   0.0156250
        k(   40) = (   1.2702905   0.0644816   0.0000000), wk =   0.0312500
        k(   41) = (   1.2702905   0.0644816   0.1485415), wk =   0.0625000
        k(   42) = (   1.2702905   0.0644816  -0.2970830), wk =   0.0312500
        k(   43) = (  -0.5081162  -0.3868899   0.0000000), wk =   0.0312500
        k(   44) = (  -0.5081162  -0.3868899   0.1485415), wk =   0.0625000
        k(   45) = (  -0.5081162  -0.3868899  -0.2970830), wk =   0.0312500
        k(   46) = (  -0.2540581  -0.3224082   0.0000000), wk =   0.0312500
        k(   47) = (  -0.2540581  -0.3224082   0.1485415), wk =   0.0625000
        k(   48) = (  -0.2540581  -0.3224082  -0.2970830), wk =   0.0312500
        k(   49) = (   0.0000000  -0.2579266   0.0000000), wk =   0.0156250
        k(   50) = (   0.0000000  -0.2579266   0.1485415), wk =   0.0312500
        k(   51) = (   0.0000000  -0.2579266  -0.2970830), wk =   0.0156250
        k(   52) = (   1.5243485   0.0000000   0.0000000), wk =   0.0156250
        k(   53) = (   1.5243485   0.0000000   0.1485415), wk =   0.0312500
        k(   54) = (   1.5243485   0.0000000  -0.2970830), wk =   0.0156250
        k(   55) = (  -0.2540581  -0.4513715   0.0000000), wk =   0.0312500
        k(   56) = (  -0.2540581  -0.4513715   0.1485415), wk =   0.0625000
        k(   57) = (  -0.2540581  -0.4513715  -0.2970830), wk =   0.0312500
        k(   58) = (   0.0000000  -0.3868899   0.0000000), wk =   0.0156250
        k(   59) = (   0.0000000  -0.3868899   0.1485415), wk =   0.0312500
        k(   60) = (   0.0000000  -0.3868899  -0.2970830), wk =   0.0156250
        k(   61) = (  -2.0324647   0.0000000   0.0000000), wk =   0.0078125
        k(   62) = (  -2.0324647   0.0000000   0.1485415), wk =   0.0156250
        k(   63) = (  -2.0324647   0.0000000  -0.2970830), wk =   0.0078125

     Dense  grid:  1153415 G-vectors     FFT dimensions: ( 144, 144, 240)

     Smooth grid:   291749 G-vectors     FFT dimensions: (  90,  90, 150)

     Estimated max dynamical RAM per process >     657.19 MB

     Estimated total dynamical RAM >       6.42 GB

     Initial potential from superposition of free atoms

     starting charge   83.99353, renormalised to   84.00000
     Starting wfcs are   66 randomized atomic wfcs
     Checking if some PAW data can be deallocated... 

     total cpu time spent up to now is       40.0 secs

     Self-consistent Calculation

     iteration #  1     ecut=    80.00 Ry     beta= 0.70
     Davidson diagonalization with overlap
     ethr =  1.00E-02,  avg # of iterations =  2.2

     Threshold (ethr) on eigenvalues was too large:
     Diagonalizing with lowered threshold

     Davidson diagonalization with overlap
     ethr =  5.02E-04,  avg # of iterations =  3.9

     total cpu time spent up to now is      198.9 secs

     total energy              =   -4240.65382479 Ry
     estimated scf accuracy    <       0.46547453 Ry

     iteration #  2     ecut=    80.00 Ry     beta= 0.70
     Davidson diagonalization with overlap
     ethr =  5.54E-04,  avg # of iterations =  8.3

     total cpu time spent up to now is      313.2 secs

     total energy              =   -4240.53749341 Ry
     estimated scf accuracy    <       2.09008164 Ry

     iteration #  3     ecut=    80.00 Ry     beta= 0.70
     Davidson diagonalization with overlap
     ethr =  5.54E-04,  avg # of iterations =  5.2

     total cpu time spent up to now is      405.9 secs

     total energy              =   -4240.88097892 Ry
     estimated scf accuracy    <       0.00811352 Ry

     iteration #  4     ecut=    80.00 Ry     beta= 0.70
     Davidson diagonalization with overlap
     c_bands:  1 eigenvalues not converged
     c_bands:  1 eigenvalues not converged
     c_bands:  1 eigenvalues not converged
     c_bands:  2 eigenvalues not converged
     c_bands:  4 eigenvalues not converged
     c_bands:  2 eigenvalues not converged
     c_bands:  2 eigenvalues not converged
     c_bands:  1 eigenvalues not converged
     c_bands:  2 eigenvalues not converged
     c_bands:  2 eigenvalues not converged
     c_bands:  2 eigenvalues not converged
     c_bands:  3 eigenvalues not converged
     c_bands:  2 eigenvalues not converged
     c_bands:  1 eigenvalues not converged
     c_bands:  2 eigenvalues not converged
     ethr =  9.66E-06,  avg # of iterations = 15.7

     total cpu time spent up to now is      574.5 secs

     total energy              =   -4240.88976430 Ry
     estimated scf accuracy    <       0.02900992 Ry

     iteration #  5     ecut=    80.00 Ry     beta= 0.70
     Davidson diagonalization with overlap
     ethr =  9.66E-06,  avg # of iterations =  6.3

     total cpu time spent up to now is      663.9 secs

     total energy              =   -4240.89133104 Ry
     estimated scf accuracy    <       0.00510601 Ry

     iteration #  6     ecut=    80.00 Ry     beta= 0.70
     Davidson diagonalization with overlap
     ethr =  6.08E-06,  avg # of iterations =  4.5

     total cpu time spent up to now is      743.3 secs

     total energy              =   -4240.89181901 Ry
     estimated scf accuracy    <       0.00080889 Ry

     iteration #  7     ecut=    80.00 Ry     beta= 0.70
     Davidson diagonalization with overlap
     ethr =  9.63E-07,  avg # of iterations =  7.9

     total cpu time spent up to now is      850.6 secs

     total energy              =   -4240.89218050 Ry
     estimated scf accuracy    <       0.00070392 Ry

     iteration #  8     ecut=    80.00 Ry     beta= 0.70
     Davidson diagonalization with overlap
     ethr =  8.38E-07,  avg # of iterations =  1.9

     total cpu time spent up to now is      918.2 secs

     total energy              =   -4240.89220128 Ry
     estimated scf accuracy    <       0.00010495 Ry

     iteration #  9     ecut=    80.00 Ry     beta= 0.70
     Davidson diagonalization with overlap
     ethr =  1.25E-07,  avg # of iterations =  6.2

     total cpu time spent up to now is     1008.2 secs

     total energy              =   -4240.89223475 Ry
     estimated scf accuracy    <       0.00001149 Ry

     iteration # 10     ecut=    80.00 Ry     beta= 0.70
     Davidson diagonalization with overlap
     ethr =  1.37E-08,  avg # of iterations =  4.6

     total cpu time spent up to now is     1087.0 secs

     total energy              =   -4240.89223742 Ry
     estimated scf accuracy    <       0.00000066 Ry

     iteration # 11     ecut=    80.00 Ry     beta= 0.70
     Davidson diagonalization with overlap
     ethr =  7.85E-10,  avg # of iterations =  7.9

     total cpu time spent up to now is     1197.8 secs

     total energy              =   -4240.89223806 Ry
     estimated scf accuracy    <       0.00000033 Ry

     iteration # 12     ecut=    80.00 Ry     beta= 0.70
     Davidson diagonalization with overlap
     ethr =  3.87E-10,  avg # of iterations =  2.7

     total cpu time spent up to now is     1268.9 secs

     total energy              =   -4240.89223810 Ry
     estimated scf accuracy    <       0.00000002 Ry

     iteration # 13     ecut=    80.00 Ry     beta= 0.70
     Davidson diagonalization with overlap
     ethr =  2.88E-11,  avg # of iterations =  8.2

     total cpu time spent up to now is     1379.5 secs

     total energy              =   -4240.89223811 Ry
     estimated scf accuracy    <       0.00000002 Ry

     iteration # 14     ecut=    80.00 Ry     beta= 0.70
     Davidson diagonalization with overlap
     ethr =  2.57E-11,  avg # of iterations =  2.0

     total cpu time spent up to now is     1448.3 secs

     total energy              =   -4240.89223811 Ry
     estimated scf accuracy    <          3.5E-09 Ry

     iteration # 15     ecut=    80.00 Ry     beta= 0.70
     Davidson diagonalization with overlap
     ethr =  4.11E-12,  avg # of iterations =  6.1

     total cpu time spent up to now is     1539.8 secs

     total energy              =   -4240.89223812 Ry
     estimated scf accuracy    <          7.0E-10 Ry

     iteration # 16     ecut=    80.00 Ry     beta= 0.70
     Davidson diagonalization with overlap
     ethr =  8.33E-13,  avg # of iterations =  2.2

     total cpu time spent up to now is     1609.5 secs

     total energy              =   -4240.89223812 Ry
     estimated scf accuracy    <          2.5E-10 Ry

     iteration # 17     ecut=    80.00 Ry     beta= 0.70
     Davidson diagonalization with overlap
     ethr =  2.92E-13,  avg # of iterations =  4.8

     total cpu time spent up to now is     1682.6 secs

     End of self-consistent calculation

          k = 0.0000 0.0000 0.0000 ( 36359 PWs)   bands (ev):

   -44.1688 -44.1688 -22.2733 -22.2733 -22.1857 -22.1857 -22.1104 -22.1102
    -8.6425  -8.5188  -7.1419  -7.0218  -5.9293  -5.3758  -4.7475  -4.6989
    -4.4958  -3.6912   0.1125   0.8752   0.8757   1.1172   1.1887   1.3231
     1.3720   1.5143   2.2643   2.8535   2.9162   2.9223   3.1107   3.4702
     3.9759   4.0452   4.1536   4.1722   4.3352   4.4480   4.5966   4.6192
     4.7979   4.9953   5.6022   5.7602   5.8187   5.9924   6.2623   6.5261
     7.2333   7.2379

          k = 0.0000 0.0000 0.1485 ( 36415 PWs)   bands (ev):

   -44.1688 -44.1688 -22.2733 -22.2733 -22.1857 -22.1857 -22.1104 -22.1103
    -8.6261  -8.5389  -7.1209  -7.0364  -5.8749  -5.5043  -4.7363  -4.7048
    -4.3401  -3.7898   0.1934   0.7832   0.9257   1.0005   1.1495   1.3299
     1.3644   1.8189   1.9783   2.8645   2.9128   2.9131   3.3156   3.5438
     3.8832   4.0851   4.1336   4.1707   4.3484   4.4130   4.5420   4.6773
     4.7136   4.7838   5.7600   5.8132   5.8145   6.2047   6.3772   6.4198
     7.0196   7.0423

          k = 0.0000 0.0000-0.2971 ( 36410 PWs)   bands (ev):

   -44.1688 -44.1688 -22.2733 -22.2733 -22.1857 -22.1857 -22.1103 -22.1103
    -8.5843  -8.5843  -7.0754  -7.0754  -5.7193  -5.7193  -4.7196  -4.7196
    -4.0422  -4.0422   0.4277   0.4277   1.0170   1.0170   1.3468   1.3468
     1.3850   1.3850   2.4599   2.4599   2.8897   2.8897   3.6861   3.6861
     3.9018   3.9018   4.1967   4.1967   4.2529   4.2529   4.5417   4.5417
     4.7430   4.7430   5.7952   5.7952   6.1319   6.1319   6.6287   6.6287
     6.6677   6.6677

          k = 0.2541 0.0645 0.0000 ( 36396 PWs)   bands (ev):

   -44.1685 -44.1684 -22.2714 -22.2714 -22.1951 -22.1951 -22.1094 -22.1092
    -8.5098  -8.3872  -7.0807  -6.9714  -5.8745  -5.3273  -4.7029  -4.6529
    -4.5869  -3.9132   0.1726   0.4747   0.9657   0.9744   1.0032   1.2855
     1.3287   1.5681   1.7509   2.6170   2.6556   3.1035   3.3926   3.6801
     3.7558   3.8264   3.9312   3.9816   4.1214   4.3233   4.3309   4.4642
     4.5578   4.6807   5.9881   6.0331   6.0937   6.1589   6.3246   6.8332
     7.0855   7.2733

          k = 0.2541 0.0645 0.1485 ( 36423 PWs)   bands (ev):

   -44.1685 -44.1684 -22.2714 -22.2714 -22.1951 -22.1951 -22.1094 -22.1092
    -8.4935  -8.4071  -7.0615  -6.9847  -5.8203  -5.4549  -4.6945  -4.6593
    -4.4446  -3.9884   0.2387   0.4618   0.7676   0.9633   1.0372   1.1992
     1.3526   1.7189   1.9743   2.6204   2.6408   2.8970   3.4511   3.4966
     3.5269   3.9063   3.9986   4.0855   4.0995   4.2780   4.4736   4.5548
     4.5917   4.7635   5.9029   5.9300   6.1012   6.1555   6.2045   6.8889
     7.2003   7.2286

          k = 0.2541 0.0645-0.2971 ( 36436 PWs)   bands (ev):

   -44.1685 -44.1685 -22.2714 -22.2714 -22.1951 -22.1951 -22.1093 -22.1093
    -8.4521  -8.4521  -7.0201  -7.0201  -5.6664  -5.6664  -4.6767  -4.6767
    -4.1899  -4.1899   0.3879   0.3879   0.7260   0.7260   1.1336   1.1336
     1.5912   1.5912   2.4568   2.4568   2.6468   2.6468   3.3324   3.3324
     3.7295   3.7295   4.0593   4.0593   4.2214   4.2214   4.5207   4.5207
     4.8480   4.8480   5.7455   5.7455   6.1029   6.1029   6.5292   6.5292
     7.3255   7.3255

          k = 0.5081 0.1290 0.0000 ( 36499 PWs)   bands (ev):

   -44.1676 -44.1676 -22.2667 -22.2667 -22.2177 -22.2176 -22.1069 -22.1067
    -8.1180  -7.9980  -6.9336  -6.8484  -5.7307  -5.2028  -4.9621  -4.5825
    -4.5438  -4.5353  -0.3278   0.1770   0.7093   0.7758   1.1729   1.3308
     1.6036   1.6412   1.7306   2.0650   2.1335   2.5186   2.6770   3.3932
     3.4628   3.5428   3.6187   3.7532   3.7946   3.8605   4.0554   4.2880
     4.2981   4.7399   6.0836   6.2606   6.3648   6.6153   6.6896   7.1477
     7.3664   7.5277

          k = 0.5081 0.1290 0.1485 ( 36476 PWs)   bands (ev):

   -44.1676 -44.1676 -22.2667 -22.2667 -22.2177 -22.2176 -22.1069 -22.1068
    -8.1022  -8.0176  -6.9187  -6.8588  -5.6801  -5.3429  -4.8472  -4.6062
    -4.5651  -4.5153  -0.2654   0.1041   0.7048   0.8366   1.1400   1.1855
     1.4130   1.6012   1.9978   2.0866   2.2458   2.5726   2.9282   3.2784
     3.4509   3.5055   3.5689   3.7398   3.8121   3.8234   3.9446   4.2862
     4.3339   4.4554   6.3248   6.4001   6.4807   6.6145   6.7791   7.0314
     7.2353   7.5219

          k = 0.5081 0.1290-0.2971 ( 36466 PWs)   bands (ev):

   -44.1676 -44.1676 -22.2667 -22.2667 -22.2177 -22.2177 -22.1068 -22.1068
    -8.0617  -8.0617  -6.8866  -6.8866  -5.5388  -5.5388  -4.7075  -4.7075
    -4.5318  -4.5318  -0.0936  -0.0936   0.8627   0.8627   0.9948   0.9948
     1.4939   1.4939   2.0581   2.0581   2.6074   2.6074   3.1850   3.1850
     3.3780   3.3780   3.6110   3.6110   3.7966   3.7966   4.0008   4.0008
     4.3786   4.3786   6.5433   6.5433   6.5769   6.5769   6.8996   6.8996
     7.3500   7.3500

          k = 0.7622 0.1934 0.0000 ( 36521 PWs)   bands (ev):

   -44.1667 -44.1667 -22.2620 -22.2620 -22.2401 -22.2401 -22.1044 -22.1043
    -7.4934  -7.3723  -6.7938  -6.7180  -5.7937  -5.6828  -5.1568  -5.0837
    -4.4523  -4.4126  -0.4248  -0.0605   0.0384   0.8537   0.8790   1.3251
     1.4953   1.5901   2.0239   2.0535   2.2226   2.3570   2.4951   2.8280
     3.0608   3.1598   3.3376   3.4125   3.5502   3.6431   3.7066   3.7790
     3.9514   4.6111   6.4247   6.5508   6.7076   7.0076   7.0209   7.0728
     7.4156   7.6001

          k = 0.7622 0.1934 0.1485 ( 36503 PWs)   bands (ev):

   -44.1667 -44.1667 -22.2620 -22.2620 -22.2401 -22.2401 -22.1044 -22.1043
    -7.4778  -7.3927  -6.7807  -6.7276  -5.7746  -5.6959  -5.1499  -5.0988
    -4.4456  -4.4177  -0.3866  -0.1305   0.1445   0.7210   0.9187   1.2601
     1.5021   1.5816   1.9595   2.0100   2.2352   2.5275   2.7292   2.9175
     2.9640   3.0274   3.2640   3.3111   3.5021   3.5858   3.8273   3.9300
     4.0194   4.4736   6.2676   6.5188   6.8242   6.9810   7.0705   7.1831
     7.2701   7.6682

          k = 0.7622 0.1934-0.2971 ( 36522 PWs)   bands (ev):

   -44.1667 -44.1667 -22.2620 -22.2620 -22.2401 -22.2401 -22.1043 -22.1043
    -7.4376  -7.4376  -6.7523  -6.7523  -5.7322  -5.7322  -5.1285  -5.1285
    -4.4308  -4.4308  -0.2739  -0.2739   0.4159   0.4159   1.0670   1.0670
     1.5497   1.5497   1.9620   1.9620   2.4877   2.4877   2.8606   2.8606
     2.9341   2.9341   3.2404   3.2404   3.5821   3.5821   3.9706   3.9706
     4.1380   4.1380   6.5548   6.5548   6.6088   6.6088   7.1095   7.1095
     7.6358   7.6359

          k =-1.0162-0.2579 0.0000 ( 36506 PWs)   bands (ev):

   -44.1664 -44.1663 -22.2600 -22.2600 -22.2494 -22.2494 -22.1033 -22.1033
    -6.8347  -6.8129  -6.5627  -6.5599  -6.5225  -6.5101  -5.0980  -5.0976
    -4.3930  -4.3605  -0.2396  -0.2235   0.0635   0.0840   1.0162   1.0219
     1.4667   1.6500   2.1788   2.3265   2.3649   2.3911   2.7589   2.8610
     2.8978   2.9578   3.1644   3.1891   3.2639   3.3221   3.4255   3.5691
     4.1005   4.3315   6.7614   6.8213   7.0026   7.0086   7.1590   7.2657
     7.2665   7.3367

          k =-1.0162-0.2579 0.1485 ( 36506 PWs)   bands (ev):

   -44.1664 -44.1664 -22.2600 -22.2600 -22.2494 -22.2494 -22.1033 -22.1033
    -6.8261  -6.8096  -6.5974  -6.5911  -6.4918  -6.4862  -5.0969  -5.0966
    -4.3899  -4.3669  -0.3228  -0.3177   0.2221   0.2308   1.0137   1.0191
     1.4562   1.5831   2.1056   2.2624   2.3054   2.3798   2.6016   2.6502
     2.9160   2.9855   3.1534   3.2429   3.4364   3.5133   3.5806   3.6485
     4.1944   4.3371   6.4846   6.5066   6.6569   6.7349   7.2791   7.2827
     7.5220   7.5870

          k =-1.0162-0.2579-0.2971 ( 36528 PWs)   bands (ev):

   -44.1664 -44.1664 -22.2600 -22.2600 -22.2494 -22.2494 -22.1033 -22.1033
    -6.8113  -6.8113  -6.6165  -6.6165  -6.4730  -6.4730  -5.0956  -5.0956
    -4.3801  -4.3801  -0.3769  -0.3769   0.3619   0.3619   0.9973   0.9973
     1.4925   1.4925   2.0441   2.0441   2.3195   2.3195   2.7231   2.7231
     2.7721   2.7721   3.2388   3.2388   3.5944   3.5944   3.7356   3.7356
     4.3465   4.3465   6.1889   6.1889   6.5917   6.5917   7.2891   7.2891
     7.6695   7.6695

          k = 0.5081 0.0000 0.0000 ( 36503 PWs)   bands (ev):

   -44.1676 -44.1676 -22.2667 -22.2667 -22.2177 -22.2176 -22.1069 -22.1067
    -8.1190  -7.9983  -6.9335  -6.8488  -5.7280  -5.2017  -4.9602  -4.5749
    -4.5440  -4.5433  -0.3241   0.1705   0.7236   0.7729   1.1699   1.2951
     1.5914   1.6371   1.7124   2.0713   2.1300   2.5089   2.6829   3.4052
     3.4532   3.5794   3.6314   3.7666   3.7786   3.9035   4.0320   4.2926
     4.3332   4.7250   6.0902   6.2356   6.3910   6.5799   6.6374   7.1894
     7.3683   7.5614

          k = 0.5081 0.0000 0.1485 ( 36453 PWs)   bands (ev):

   -44.1676 -44.1676 -22.2667 -22.2667 -22.2177 -22.2176 -22.1069 -22.1068
    -8.1031  -8.0180  -6.9186  -6.8590  -5.6777  -5.3417  -4.8448  -4.6058
    -4.5616  -4.5202  -0.2624   0.1001   0.7105   0.8376   1.1443   1.1749
     1.3751   1.5800   1.9979   2.1064   2.2230   2.5642   2.9330   3.2897
     3.4755   3.4971   3.5828   3.7565   3.8143   3.8806   3.8915   4.3049
     4.3690   4.4292   6.3096   6.4039   6.4984   6.5753   6.7437   7.0674
     7.2423   7.5460

          k = 0.5081 0.0000-0.2971 ( 36452 PWs)   bands (ev):

   -44.1676 -44.1676 -22.2667 -22.2667 -22.2177 -22.2177 -22.1068 -22.1068
    -8.0624  -8.0624  -6.8865  -6.8865  -5.5371  -5.5371  -4.7050  -4.7050
    -4.5335  -4.5335  -0.0931  -0.0931   0.8594   0.8594   0.9988   0.9988
     1.4622   1.4622   2.0638   2.0638   2.5948   2.5948   3.1977   3.1977
     3.3892   3.3892   3.6095   3.6095   3.8294   3.8294   3.9788   3.9788
     4.3949   4.3949   6.5358   6.5358   6.5620   6.5620   6.9158   6.9158
     7.3573   7.3573

          k = 0.7622 0.0645 0.0000 ( 36505 PWs)   bands (ev):

   -44.1667 -44.1667 -22.2620 -22.2620 -22.2401 -22.2401 -22.1044 -22.1043
    -7.4960  -7.3729  -6.7909  -6.7177  -5.7944  -5.6814  -5.1555  -5.0839
    -4.4401  -4.4253  -0.4173  -0.0529   0.0365   0.8455   0.9062   1.3376
     1.4732   1.5471   1.9899   2.0391   2.2558   2.3792   2.4474   2.8035
     3.0539   3.1926   3.3414   3.4256   3.6122   3.6570   3.7178   3.7741
     3.8673   4.6243   6.4236   6.5186   6.7414   6.9960   7.0305   7.0590
     7.4152   7.6582

          k = 0.7622 0.0645 0.1485 ( 36509 PWs)   bands (ev):

   -44.1667 -44.1667 -22.2620 -22.2620 -22.2401 -22.2401 -22.1044 -22.1043
    -7.4802  -7.3937  -6.7779  -6.7267  -5.7752  -5.6950  -5.1489  -5.0988
    -4.4369  -4.4266  -0.3791  -0.1234   0.1419   0.7128   0.9429   1.2705
     1.4789   1.5759   1.9267   1.9625   2.2492   2.5198   2.7336   2.9049
     2.9756   3.0187   3.2856   3.3197   3.5420   3.5743   3.8258   3.9633
     3.9692   4.4626   6.2928   6.4934   6.8454   6.9782   7.0495   7.2036
     7.2555   7.7117

          k = 0.7622 0.0645-0.2971 ( 36472 PWs)   bands (ev):

   -44.1667 -44.1667 -22.2620 -22.2620 -22.2401 -22.2401 -22.1043 -22.1043
    -7.4393  -7.4393  -6.7503  -6.7503  -5.7322  -5.7322  -5.1279  -5.1279
    -4.4309  -4.4309  -0.2667  -0.2667   0.4107   0.4107   1.0829   1.0829
     1.5464   1.5464   1.9106   1.9106   2.5009   2.5009   2.8623   2.8623
     2.9086   2.9086   3.2812   3.2812   3.5788   3.5788   4.0065   4.0065
     4.0889   4.0889   6.5818   6.5818   6.6084   6.6084   7.0822   7.0822
     7.6660   7.6661

          k = 1.0162 0.1290 0.0000 ( 36514 PWs)   bands (ev):

   -44.1664 -44.1663 -22.2600 -22.2600 -22.2494 -22.2494 -22.1033 -22.1033
    -6.8348  -6.8128  -6.5627  -6.5599  -6.5224  -6.5101  -5.0980  -5.0976
    -4.3930  -4.3605  -0.2451  -0.2179   0.0618   0.0858   1.0064   1.0323
     1.4746   1.6386   2.1743   2.3347   2.3746   2.3806   2.7422   2.8940
     2.9047   2.9480   3.1461   3.1861   3.2765   3.3064   3.4346   3.5725
     4.0810   4.3512   6.7535   6.8347   6.9763   7.0343   7.1854   7.2657
     7.2680   7.3109

          k = 1.0162 0.1290 0.1485 ( 36524 PWs)   bands (ev):

   -44.1664 -44.1664 -22.2600 -22.2600 -22.2494 -22.2494 -22.1033 -22.1033
    -6.8261  -6.8096  -6.5974  -6.5911  -6.4917  -6.4862  -5.0969  -5.0966
    -4.3899  -4.3669  -0.3254  -0.3153   0.2231   0.2301   1.0090   1.0238
     1.4635   1.5754   2.1078   2.2504   2.3087   2.3823   2.6066   2.6542
     2.8984   3.0009   3.1552   3.2383   3.4447   3.4871   3.6010   3.6483
     4.1746   4.3570   6.4826   6.5167   6.6528   6.7359   7.2802   7.2830
     7.5267   7.5804

          k = 1.0162 0.1290-0.2971 ( 36516 PWs)   bands (ev):

   -44.1664 -44.1664 -22.2600 -22.2600 -22.2494 -22.2494 -22.1033 -22.1033
    -6.8113  -6.8113  -6.6165  -6.6165  -6.4730  -6.4730  -5.0956  -5.0956
    -4.3801  -4.3801  -0.3770  -0.3770   0.3621   0.3621   0.9971   0.9971
     1.4937   1.4937   2.0435   2.0435   2.3179   2.3179   2.7070   2.7070
     2.7918   2.7918   3.2345   3.2345   3.5963   3.5963   3.7354   3.7354
     4.3474   4.3474   6.1925   6.1925   6.5905   6.5905   7.2896   7.2896
     7.6672   7.6673

          k =-0.7622-0.3224 0.0000 ( 36511 PWs)   bands (ev):

   -44.1667 -44.1667 -22.2620 -22.2620 -22.2401 -22.2401 -22.1044 -22.1043
    -7.4898  -7.3716  -6.7983  -6.7183  -5.7926  -5.6848  -5.1585  -5.0834
    -4.4616  -4.4026  -0.4352  -0.0702   0.0401   0.8473   0.8651   1.3099
     1.5012   1.6676   2.0761   2.0847   2.2129   2.3248   2.4887   2.8670
     3.0660   3.1529   3.3328   3.3924   3.5171   3.6057   3.6938   3.7173
     4.0931   4.5862   6.4261   6.5967   6.6752   6.9319   7.0571   7.1467
     7.4067   7.5222

          k =-0.7622-0.3224 0.1485 ( 36492 PWs)   bands (ev):

   -44.1667 -44.1667 -22.2620 -22.2620 -22.2401 -22.2401 -22.1044 -22.1043
    -7.4746  -7.3914  -6.7848  -6.7287  -5.7737  -5.6971  -5.1514  -5.0989
    -4.4521  -4.4106  -0.3969  -0.1401   0.1476   0.7324   0.8902   1.2449
     1.5226   1.5997   2.0094   2.0765   2.2269   2.5250   2.6971   2.9417
     2.9691   3.0451   3.2441   3.2879   3.4723   3.5722   3.8093   3.8810
     4.1116   4.4873   6.2352   6.5578   6.7882   6.9799   7.0879   7.1909
     7.2910   7.5885

          k =-0.7622-0.3224-0.2971 ( 36508 PWs)   bands (ev):

   -44.1667 -44.1667 -22.2620 -22.2620 -22.2401 -22.2401 -22.1043 -22.1043
    -7.4352  -7.4352  -6.7552  -6.7552  -5.7321  -5.7321  -5.1294  -5.1294
    -4.4307  -4.4307  -0.2839  -0.2839   0.4228   0.4228   1.0478   1.0478
     1.5562   1.5562   2.0281   2.0281   2.4770   2.4770   2.8597   2.8597
     2.9674   2.9674   3.1867   3.1867   3.5796   3.5796   3.9233   3.9233
     4.2045   4.2045   6.5227   6.5227   6.6062   6.6062   7.1523   7.1523
     7.5651   7.5652

          k =-0.5081-0.2579 0.0000 ( 36480 PWs)   bands (ev):

   -44.1676 -44.1676 -22.2667 -22.2667 -22.2177 -22.2176 -22.1069 -22.1067
    -8.1156  -7.9974  -6.9340  -6.8472  -5.7373  -5.2053  -4.9668  -4.5936
    -4.5451  -4.5218  -0.3368   0.1927   0.6854   0.7729   1.1806   1.4253
     1.6333   1.6494   1.7818   2.0514   2.1322   2.5386   2.6611   3.3410
     3.4866   3.4909   3.6058   3.6945   3.7761   3.8097   4.1216   4.2138
     4.2761   4.7716   6.0704   6.2840   6.3399   6.7051   6.8175   7.0529
     7.3593   7.4555

          k =-0.5081-0.2579 0.1485 ( 36485 PWs)   bands (ev):

   -44.1676 -44.1676 -22.2667 -22.2667 -22.2177 -22.2176 -22.1069 -22.1068
    -8.0999  -8.0166  -6.9192  -6.8581  -5.6858  -5.3456  -4.8531  -4.6072
    -4.5712  -4.5061  -0.2725   0.1134   0.6933   0.8312   1.1348   1.2102
     1.5099   1.6603   1.9845   2.0570   2.2875   2.5894   2.9149   3.2375
     3.4021   3.5233   3.5434   3.6911   3.7526   3.7883   4.0344   4.2238
     4.2893   4.4941   6.3568   6.3689   6.4638   6.7043   6.8689   6.9600
     7.2113   7.4716

          k =-0.5081-0.2579-0.2971 ( 36478 PWs)   bands (ev):

   -44.1676 -44.1676 -22.2667 -22.2667 -22.2177 -22.2177 -22.1068 -22.1068
    -8.0601  -8.0601  -6.8867  -6.8867  -5.5429  -5.5429  -4.7132  -4.7132
    -4.5281  -4.5281  -0.0949  -0.0949   0.8707   0.8707   0.9857   0.9857
     1.5790   1.5790   2.0379   2.0379   2.6448   2.6448   3.1355   3.1355
     3.3576   3.3576   3.6117   3.6117   3.7306   3.7306   4.0468   4.0468
     4.3429   4.3429   6.5147   6.5147   6.6537   6.6537   6.8638   6.8638
     7.3386   7.3386

          k =-0.2541-0.1934 0.0000 ( 36410 PWs)   bands (ev):

   -44.1685 -44.1684 -22.2714 -22.2714 -22.1951 -22.1951 -22.1094 -22.1092
    -8.5081  -8.3868  -7.0781  -6.9695  -5.8852  -5.3326  -4.7197  -4.6427
    -4.5829  -3.9137   0.1941   0.4689   0.9519   0.9785   1.0803   1.3101
     1.3587   1.6233   1.7604   2.5881   2.6448   3.1119   3.4388   3.6580
     3.7439   3.7649   3.9203   3.9233   3.9793   4.2364   4.2715   4.4342
     4.5044   4.7198   6.0377   6.0919   6.1304   6.2095   6.3562   6.8817
     7.0434   7.2112

          k =-0.2541-0.1934 0.1485 ( 36427 PWs)   bands (ev):

   -44.1685 -44.1684 -22.2714 -22.2714 -22.1951 -22.1951 -22.1094 -22.1092
    -8.4920  -8.4064  -7.0593  -6.9829  -5.8300  -5.4606  -4.7078  -4.6507
    -4.4431  -3.9885   0.2604   0.4595   0.7656   0.9921   1.0932   1.2229
     1.3784   1.7293   2.0122   2.5883   2.6351   2.9085   3.4553   3.4892
     3.5773   3.8429   3.9005   3.9191   4.0677   4.2392   4.4387   4.4888
     4.5682   4.8008   5.9183   5.9203   6.1529   6.2300   6.2726   6.8764
     7.1850   7.2061

          k =-0.2541-0.1934-0.2971 ( 36422 PWs)   bands (ev):

   -44.1685 -44.1685 -22.2714 -22.2714 -22.1951 -22.1951 -22.1093 -22.1093
    -8.4510  -8.4510  -7.0183  -7.0183  -5.6739  -5.6739  -4.6791  -4.6791
    -4.1893  -4.1893   0.4012   0.4012   0.7364   0.7364   1.1807   1.1807
     1.6033   1.6033   2.4672   2.4672   2.6446   2.6446   3.3297   3.3297
     3.7651   3.7651   3.8744   3.8744   4.1977   4.1977   4.4663   4.4663
     4.8639   4.8639   5.7353   5.7353   6.1774   6.1774   6.5356   6.5356
     7.3132   7.3132

          k = 0.0000-0.1290 0.0000 ( 36417 PWs)   bands (ev):

   -44.1688 -44.1688 -22.2733 -22.2733 -22.1857 -22.1857 -22.1104 -22.1102
    -8.6416  -8.5186  -7.1399  -7.0206  -5.9363  -5.3796  -4.7564  -4.6915
    -4.4959  -3.6914   0.1253   0.8769   0.9160   1.1293   1.2006   1.3228
     1.3717   1.5494   2.2601   2.8604   2.9149   2.9267   3.1121   3.5088
     3.9826   4.0169   4.0335   4.0343   4.2840   4.4485   4.5530   4.6049
     4.7962   4.9833   5.6184   5.8063   5.8736   6.0194   6.2707   6.5432
     7.1920   7.2335

          k = 0.0000-0.1290 0.1485 ( 36419 PWs)   bands (ev):

   -44.1688 -44.1688 -22.2733 -22.2733 -22.1857 -22.1857 -22.1104 -22.1103
    -8.6253  -8.5386  -7.1191  -7.0351  -5.8813  -5.5082  -4.7441  -4.6991
    -4.3401  -3.7899   0.2072   0.8037   0.9542   1.0049   1.1717   1.3296
     1.3642   1.8271   1.9924   2.8711   2.9179   2.9185   3.3031   3.5849
     3.8965   3.9994   4.0330   4.0738   4.3422   4.3555   4.5147   4.6701
     4.6981   4.7819   5.7919   5.8401   5.8666   6.2112   6.3843   6.4384
     7.0004   7.0212

          k = 0.0000-0.1290-0.2971 ( 36464 PWs)   bands (ev):

   -44.1688 -44.1688 -22.2733 -22.2733 -22.1857 -22.1857 -22.1103 -22.1103
    -8.5837  -8.5837  -7.0740  -7.0740  -5.7243  -5.7243  -4.7207  -4.7207
    -4.0421  -4.0421   0.4440   0.4440   1.0439   1.0439   1.3465   1.3465
     1.3882   1.3882   2.4737   2.4737   2.8954   2.8954   3.6980   3.6980
     3.8642   3.8642   4.1483   4.1483   4.1869   4.1869   4.5098   4.5098
     4.7397   4.7397   5.8383   5.8383   6.1479   6.1479   6.6103   6.6103
     6.6719   6.6719

          k = 1.0162 0.0000 0.0000 ( 36499 PWs)   bands (ev):

   -44.1664 -44.1663 -22.2600 -22.2600 -22.2494 -22.2494 -22.1033 -22.1033
    -6.8348  -6.8128  -6.5627  -6.5598  -6.5223  -6.5102  -5.0980  -5.0976
    -4.3930  -4.3605  -0.2489  -0.2140   0.0603   0.0873   1.0016   1.0377
     1.4838   1.6259   2.1703   2.3525   2.3607   2.3840   2.7306   2.9213
     2.9253   2.9285   3.1100   3.2188   3.2784   3.2799   3.4440   3.5760
     4.0642   4.3684   6.7475   6.8465   6.9641   7.0458   7.2458   7.2511
     7.2659   7.2694

          k = 1.0162 0.0000 0.1485 ( 36485 PWs)   bands (ev):

   -44.1664 -44.1663 -22.2600 -22.2600 -22.2494 -22.2494 -22.1033 -22.1033
    -6.8262  -6.8095  -6.5974  -6.5911  -6.4917  -6.4863  -5.0969  -5.0966
    -4.3899  -4.3669  -0.3272  -0.3138   0.2244   0.2293   1.0063   1.0264
     1.4720   1.5665   2.1103   2.2385   2.3143   2.3818   2.6154   2.6539
     2.8861   3.0119   3.1578   3.2326   3.4540   3.4689   3.6085   3.6522
     4.1584   4.3732   6.4823   6.5254   6.6489   6.7368   7.2812   7.2832
     7.5332   7.5719

          k = 1.0162 0.0000-0.2971 ( 36514 PWs)   bands (ev):

   -44.1664 -44.1664 -22.2600 -22.2600 -22.2494 -22.2494 -22.1033 -22.1033
    -6.8113  -6.8113  -6.6165  -6.6165  -6.4730  -6.4730  -5.0956  -5.0956
    -4.3801  -4.3801  -0.3771  -0.3771   0.3623   0.3623   0.9968   0.9968
     1.4949   1.4949   2.0428   2.0428   2.3162   2.3162   2.6961   2.6961
     2.8062   2.8062   3.2301   3.2301   3.5981   3.5981   3.7351   3.7351
     4.3484   4.3484   6.1961   6.1961   6.5894   6.5894   7.2901   7.2901
     7.6645   7.6646

          k = 1.2703 0.0645 0.0000 ( 36468 PWs)   bands (ev):

   -44.1667 -44.1667 -22.2620 -22.2620 -22.2401 -22.2401 -22.1044 -22.1043
    -7.4872  -7.3710  -6.8015  -6.7183  -5.7919  -5.6862  -5.1598  -5.0832
    -4.4666  -4.3971  -0.4424  -0.0766   0.0407   0.8284   0.8731   1.3005
     1.4998   1.7249   2.0945   2.1219   2.2716   2.3005   2.4047   2.8994
     3.0644   3.1723   3.3473   3.3737   3.5136   3.5603   3.6618   3.6849
     4.1970   4.5589   6.4271   6.6278   6.6639   6.8768   7.0835   7.2209
     7.3822   7.4912

          k = 1.2703 0.0645 0.1485 ( 36490 PWs)   bands (ev):

   -44.1667 -44.1667 -22.2620 -22.2620 -22.2401 -22.2401 -22.1044 -22.1043
    -7.4722  -7.3904  -6.7878  -6.7294  -5.7731  -5.6980  -5.1525  -5.0990
    -4.4556  -4.4068  -0.4042  -0.1467   0.1494   0.7403   0.8730   1.2349
     1.5289   1.6186   2.0536   2.1062   2.2446   2.5128   2.6553   2.9650
     2.9768   3.0709   3.2299   3.2654   3.4746   3.5381   3.7911   3.8469
     4.1842   4.4942   6.2149   6.5885   6.7583   6.9763   7.0833   7.2412
     7.2978   7.5281

          k = 1.2703 0.0645-0.2971 ( 36480 PWs)   bands (ev):

   -44.1667 -44.1667 -22.2620 -22.2620 -22.2401 -22.2401 -22.1043 -22.1043
    -7.4335  -7.4335  -6.7573  -6.7573  -5.7321  -5.7321  -5.1300  -5.1300
    -4.4306  -4.4306  -0.2909  -0.2909   0.4273   0.4273   1.0362   1.0362
     1.5618   1.5618   2.0695   2.0695   2.4767   2.4767   2.8628   2.8628
     2.9814   2.9814   3.1565   3.1565   3.5722   3.5722   3.8903   3.8903
     4.2519   4.2519   6.5026   6.5026   6.6034   6.6034   7.1866   7.1866
     7.4955   7.4955

          k =-0.5081-0.3869 0.0000 ( 36463 PWs)   bands (ev):

   -44.1676 -44.1676 -22.2667 -22.2667 -22.2177 -22.2176 -22.1069 -22.1067
    -8.1131  -7.9968  -6.9349  -6.8456  -5.7440  -5.2077  -4.9715  -4.6007
    -4.5464  -4.5120  -0.3456   0.2081   0.6686   0.7632   1.1885   1.5454
     1.6598   1.6635   1.8203   2.0277   2.1483   2.5353   2.6429   3.2700
     3.4687   3.5287   3.5940   3.6047   3.7211   3.8121   4.1188   4.2007
     4.2631   4.7994   6.0596   6.2182   6.4066   6.8026   6.9594   6.9641
     7.3379   7.4092

          k =-0.5081-0.3869 0.1485 ( 36477 PWs)   bands (ev):

   -44.1676 -44.1676 -22.2667 -22.2667 -22.2177 -22.2176 -22.1069 -22.1068
    -8.0977  -8.0157  -6.9200  -6.8571  -5.6916  -5.3483  -4.8590  -4.6086
    -4.5751  -4.4987  -0.2794   0.1225   0.6846   0.8225   1.1334   1.2335
     1.6324   1.7320   1.9450   2.0249   2.3470   2.5813   2.8959   3.1898
     3.3510   3.5264   3.5487   3.6129   3.7406   3.7523   4.1069   4.1601
     4.2572   4.5274   6.3031   6.4046   6.4622   6.7949   6.8548   7.0215
     7.1722   7.4431

          k =-0.5081-0.3869-0.2971 ( 36492 PWs)   bands (ev):

   -44.1676 -44.1676 -22.2667 -22.2667 -22.2177 -22.2177 -22.1068 -22.1068
    -8.0584  -8.0584  -6.8869  -6.8869  -5.5469  -5.5469  -4.7188  -4.7188
    -4.5245  -4.5245  -0.0963  -0.0963   0.8788   0.8788   0.9766   0.9766
     1.6864   1.6864   1.9985   1.9985   2.7011   2.7011   3.0476   3.0476
     3.3479   3.3479   3.6047   3.6047   3.6854   3.6854   4.0783   4.0783
     4.3189   4.3189   6.4855   6.4855   6.7058   6.7058   6.8450   6.8450
     7.3477   7.3478

          k =-0.2541-0.3224 0.0000 ( 36485 PWs)   bands (ev):

   -44.1685 -44.1685 -22.2714 -22.2714 -22.1951 -22.1951 -22.1094 -22.1092
    -8.5056  -8.3861  -7.0749  -6.9661  -5.9005  -5.3401  -4.7387  -4.6297
    -4.5807  -3.9144   0.2195   0.4611   0.9457   0.9855   1.1980   1.3436
     1.4094   1.7133   1.7759   2.5266   2.6010   3.1517   3.5108   3.5879
     3.6206   3.6622   3.8004   3.9056   3.9838   4.1572   4.1810   4.3808
     4.4227   4.7804   6.0763   6.1320   6.1860   6.3142   6.4001   6.9479
     6.9668   7.1325

          k =-0.2541-0.3224 0.1485 ( 36445 PWs)   bands (ev):

   -44.1685 -44.1685 -22.2714 -22.2714 -22.1951 -22.1951 -22.1094 -22.1092
    -8.4898  -8.4055  -7.0564  -6.9798  -5.8438  -5.4686  -4.7223  -4.6427
    -4.4413  -3.9887   0.2867   0.4560   0.7628   1.0245   1.1793   1.2777
     1.4253   1.7523   2.0742   2.5289   2.5935   2.9451   3.4405   3.4674
     3.6368   3.6503   3.6995   3.9196   4.0266   4.1756   4.3828   4.4151
     4.5446   4.8491   5.9068   5.9371   6.2043   6.3020   6.3764   6.8247
     7.1802   7.1904

          k =-0.2541-0.3224-0.2971 ( 36442 PWs)   bands (ev):

   -44.1685 -44.1685 -22.2714 -22.2714 -22.1951 -22.1951 -22.1093 -22.1093
    -8.4493  -8.4493  -7.0158  -7.0158  -5.6845  -5.6845  -4.6826  -4.6826
    -4.1884  -4.1884   0.4167   0.4167   0.7488   0.7488   1.2619   1.2619
     1.6288   1.6288   2.4794   2.4794   2.6320   2.6320   3.3171   3.3171
     3.6372   3.6372   3.8344   3.8344   4.1421   4.1421   4.4015   4.4015
     4.8836   4.8836   5.7276   5.7276   6.2359   6.2359   6.5511   6.5511
     7.3035   7.3035

          k = 0.0000-0.2579 0.0000 ( 36445 PWs)   bands (ev):

   -44.1688 -44.1688 -22.2733 -22.2733 -22.1857 -22.1857 -22.1104 -22.1102
    -8.6394  -8.5180  -7.1353  -7.0170  -5.9532  -5.3885  -4.7733  -4.6778
    -4.4968  -3.6917   0.1513   0.8823   1.0232   1.1559   1.2565   1.3222
     1.3711   1.6229   2.2504   2.8778   2.9176   2.9373   3.1199   3.6145
     3.6818   3.7285   4.0048   4.0212   4.1624   4.4333   4.4495   4.5705
     4.7922   4.9621   5.6580   5.8915   5.9626   6.0902   6.2912   6.5808
     7.0645   7.2338

          k = 0.0000-0.2579 0.1485 ( 36452 PWs)   bands (ev):

   -44.1688 -44.1688 -22.2733 -22.2733 -22.1857 -22.1857 -22.1104 -22.1103
    -8.6233  -8.5377  -7.1150  -7.0317  -5.8967  -5.5178  -4.7579  -4.6899
    -4.3402  -3.7900   0.2357   0.8414   1.0045   1.0639   1.2327   1.3290
     1.3636   1.8428   2.0314   2.8875   2.9295   2.9367   3.2795   3.6439
     3.6983   3.7506   3.9370   4.0461   4.2377   4.3262   4.4155   4.6538
     4.6814   4.7774   5.8459   5.9045   5.9486   6.2289   6.4015   6.4781
     6.8883   7.0249

          k = 0.0000-0.2579-0.2971 ( 36454 PWs)   bands (ev):

   -44.1688 -44.1688 -22.2733 -22.2733 -22.1857 -22.1857 -22.1103 -22.1103
    -8.5822  -8.5822  -7.0705  -7.0705  -5.7365  -5.7365  -4.7234  -4.7234
    -4.0418  -4.0418   0.4783   0.4783   1.1219   1.1219   1.3459   1.3459
     1.3987   1.3987   2.5101   2.5101   2.9095   2.9095   3.6043   3.6043
     3.7862   3.7862   4.0381   4.0381   4.1627   4.1627   4.4286   4.4286
     4.7324   4.7324   5.9068   5.9068   6.1895   6.1895   6.5551   6.5551
     6.6824   6.6824

          k = 1.5243 0.0000 0.0000 ( 36439 PWs)   bands (ev):

   -44.1676 -44.1676 -22.2667 -22.2667 -22.2177 -22.2176 -22.1069 -22.1067
    -8.1121  -7.9965  -6.9353  -6.8448  -5.7468  -5.2087  -4.9735  -4.6031
    -4.5469  -4.5085  -0.3492   0.2145   0.6630   0.7578   1.1919   1.6118
     1.6728   1.6762   1.8068   2.0171   2.1755   2.5149   2.6347   3.2490
     3.4524   3.5492   3.5593   3.6051   3.6970   3.8132   4.0768   4.2334
     4.2575   4.8100   6.0556   6.1877   6.4382   6.8461   6.9288   7.0309
     7.3141   7.4636

          k = 1.5243 0.0000 0.1485 ( 36476 PWs)   bands (ev):

   -44.1676 -44.1676 -22.2667 -22.2667 -22.2177 -22.2176 -22.1069 -22.1068
    -8.0967  -8.0153  -6.9204  -6.8567  -5.6941  -5.3494  -4.8614  -4.6092
    -4.5763  -4.4959  -0.2823   0.1262   0.6816   0.8181   1.1336   1.2427
     1.7184   1.7502   1.9165   2.0004   2.3968   2.5508   2.8837   3.1844
     3.3126   3.5331   3.5508   3.5889   3.7291   3.7449   4.1004   4.1670
     4.2441   4.5411   6.2757   6.4227   6.4633   6.8206   6.8370   7.1022
     7.1283   7.4555

          k = 1.5243 0.0000-0.2971 ( 36508 PWs)   bands (ev):

   -44.1676 -44.1676 -22.2667 -22.2667 -22.2177 -22.2177 -22.1068 -22.1068
    -8.0577  -8.0577  -6.8870  -6.8870  -5.5485  -5.5485  -4.7210  -4.7210
    -4.5230  -4.5230  -0.0968  -0.0968   0.8823   0.8823   0.9728   0.9728
     1.7473   1.7473   1.9670   1.9670   2.7384   2.7384   2.9916   2.9916
     3.3468   3.3468   3.5979   3.5979   3.6740   3.6740   4.0843   4.0843
     4.3153   4.3153   6.4735   6.4735   6.7114   6.7114   6.8488   6.8488
     7.3641   7.3641

          k =-0.2541-0.4514 0.0000 ( 36444 PWs)   bands (ev):

   -44.1685 -44.1685 -22.2714 -22.2714 -22.1951 -22.1951 -22.1094 -22.1092
    -8.5039  -8.3857  -7.0730  -6.9633  -5.9115  -5.3453  -4.7504  -4.6194
    -4.5819  -3.9149   0.2337   0.4559   0.9449   0.9912   1.3168   1.3664
     1.4219   1.7819   1.8171   2.4628   2.5315   3.2232   3.4423   3.4718
     3.5650   3.6144   3.8717   3.8915   3.9861   4.0740   4.1187   4.3029
     4.4057   4.8202   6.0818   6.1424   6.2697   6.3771   6.4257   6.8950
     6.9922   7.0854

          k =-0.2541-0.4514 0.1485 ( 36461 PWs)   bands (ev):

   -44.1685 -44.1685 -22.2714 -22.2714 -22.1951 -22.1951 -22.1094 -22.1092
    -8.4882  -8.4048  -7.0547  -6.9774  -5.8537  -5.4742  -4.7312  -4.6383
    -4.4402  -3.9888   0.3021   0.4534   0.7610   1.0462   1.2222   1.3554
     1.4644   1.7785   2.1401   2.4682   2.5203   2.9928   3.3739   3.4114
     3.5205   3.5905   3.7738   3.9173   4.0104   4.0782   4.3320   4.3931
     4.5295   4.8814   5.9000   5.9469   6.2434   6.3413   6.4379   6.7645
     7.1776   7.1985

          k =-0.2541-0.4514-0.2971 ( 36490 PWs)   bands (ev):

   -44.1685 -44.1685 -22.2714 -22.2714 -22.1951 -22.1951 -22.1093 -22.1093
    -8.4482  -8.4482  -7.0139  -7.0139  -5.6920  -5.6920  -4.6850  -4.6850
    -4.1877  -4.1877   0.4257   0.4257   0.7557   0.7557   1.3296   1.3296
     1.6588   1.6588   2.4780   2.4780   2.6169   2.6169   3.2877   3.2877
     3.5053   3.5053   3.9024   3.9024   4.0724   4.0724   4.3647   4.3647
     4.8959   4.8959   5.7245   5.7245   6.2546   6.2546   6.5630   6.5630
     7.3022   7.3022

          k = 0.0000-0.3869 0.0000 ( 36477 PWs)   bands (ev):

   -44.1688 -44.1688 -22.2733 -22.2733 -22.1857 -22.1857 -22.1104 -22.1102
    -8.6372  -8.5175  -7.1312  -7.0128  -5.9703  -5.3973  -4.7873  -4.6661
    -4.4985  -3.6921   0.1706   0.8907   1.1646   1.1790   1.3216   1.3235
     1.3705   1.6979   2.2420   2.8966   2.9288   2.9475   3.1355   3.3499
     3.4485   3.7631   3.9758   4.0326   4.0469   4.2776   4.4505   4.5362
     4.7882   4.9453   5.6980   5.9506   6.0190   6.1783   6.3122   6.6133
     6.9147   7.2339

          k = 0.0000-0.3869 0.1485 ( 36452 PWs)   bands (ev):

   -44.1688 -44.1688 -22.2733 -22.2733 -22.1857 -22.1857 -22.1104 -22.1103
    -8.6213  -8.5368  -7.1112  -7.0278  -5.9123  -5.5272  -4.7692  -4.6833
    -4.3403  -3.7901   0.2572   0.8729   1.0181   1.2010   1.3031   1.3284
     1.3630   1.8558   2.0806   2.9051   2.9411   2.9656   3.2285   3.3532
     3.4637   3.8356   3.9652   4.0180   4.1351   4.2670   4.3083   4.6393
     4.6747   4.7730   5.8969   5.9517   5.9977   6.2541   6.4191   6.5113
     6.7580   7.0286

          k = 0.0000-0.3869-0.2971 ( 36454 PWs)   bands (ev):

   -44.1688 -44.1688 -22.2733 -22.2733 -22.1857 -22.1857 -22.1103 -22.1103
    -8.5807  -8.5807  -7.0671  -7.0671  -5.7486  -5.7486  -4.7263  -4.7263
    -4.0415  -4.0415   0.5056   0.5056   1.2208   1.2208   1.3453   1.3453
     1.4161   1.4161   2.5550   2.5550   2.9241   2.9241   3.3233   3.3233
     3.8184   3.8184   4.0209   4.0209   4.1377   4.1377   4.3406   4.3406
     4.7256   4.7256   5.9482   5.9482   6.2375   6.2375   6.4825   6.4825
     6.6931   6.6931

          k =-2.0325 0.0000 0.0000 ( 36452 PWs)   bands (ev):

   -44.1688 -44.1688 -22.2733 -22.2733 -22.1857 -22.1857 -22.1104 -22.1102
    -8.6363  -8.5173  -7.1296  -7.0108  -5.9775  -5.4009  -4.7926  -4.6615
    -4.4995  -3.6923   0.1766   0.8949   1.1875   1.2799   1.3030   1.3213
     1.3703   1.7411   2.2395   2.9050   2.9362   2.9515   3.1225   3.2434
     3.3158   3.9027   3.9259   3.9636   4.0565   4.1869   4.4509   4.5220
     4.7866   4.9389   5.7146   5.9699   6.0365   6.2253   6.3210   6.6254
     6.8419   7.2339

          k =-2.0325 0.0000 0.1485 ( 36456 PWs)   bands (ev):

   -44.1688 -44.1688 -22.2733 -22.2733 -22.1857 -22.1857 -22.1104 -22.1103
    -8.6204  -8.5365  -7.1097  -7.0261  -5.9188  -5.5310  -4.7734  -4.6810
    -4.3404  -3.7901   0.2640   0.8857   1.0229   1.2947   1.3125   1.3281
     1.3627   1.8609   2.1084   2.9129   2.9457   2.9829   3.1466   3.2447
     3.3859   3.9261   3.9709   4.0062   4.1035   4.1630   4.3004   4.6338
     4.6726   4.7713   5.9193   5.9676   6.0116   6.2704   6.4266   6.5234
     6.6954   7.0302

          k =-2.0325 0.0000-0.2971 ( 36460 PWs)   bands (ev):

   -44.1688 -44.1688 -22.2733 -22.2733 -22.1857 -22.1857 -22.1103 -22.1103
    -8.5801  -8.5801  -7.0656  -7.0656  -5.7537  -5.7537  -4.7274  -4.7274
    -4.0414  -4.0414   0.5149   0.5149   1.2670   1.2670   1.3451   1.3451
     1.4287   1.4287   2.5798   2.5798   2.9303   2.9303   3.1895   3.1895
     3.8348   3.8348   4.0250   4.0250   4.1271   4.1271   4.3005   4.3005
     4.7229   4.7229   5.9610   5.9610   6.2628   6.2628   6.4440   6.4440
     6.6976   6.6976

     the Fermi energy is     5.3538 ev

!    total energy              =   -4240.89223812 Ry

     total all-electron energy =   -150287.585933 Ry
     estimated scf accuracy    <          5.0E-12 Ry
     smearing contrib. (-TS)   =       0.00000000 Ry
     internal energy E=F+TS    =   -4240.89223812 Ry

     The total energy is F=E-TS. E is the sum of the following terms:
     one-electron contribution =    -169.71362768 Ry
     hartree contribution      =     118.28174453 Ry
     xc contribution           =    -201.71190676 Ry
     ewald contribution        =    -220.18781111 Ry
     one-center paw contrib.   =   -3767.56063710 Ry

     convergence has been achieved in  17 iterations

     Forces acting on atoms (cartesian axes, Ry/au):

     atom    1 type  1   force =     0.00000000    0.02931230    0.00000000
     atom    2 type  1   force =    -0.00000000   -0.02931230    0.00000000
     atom    3 type  2   force =     0.00000000   -0.00058096    0.00000000
     atom    4 type  2   force =     0.00000000    0.00058096    0.00000000
     atom    5 type  2   force =    -0.00000000   -0.00688646   -0.00549169
     atom    6 type  2   force =    -0.00000000    0.00688646    0.00549169
     atom    7 type  2   force =     0.00000000   -0.00688646    0.00549169
     atom    8 type  2   force =     0.00000000    0.00688646   -0.00549169
     atom    9 type  2   force =     0.00000000   -0.05961032   -0.07428410
     atom   10 type  2   force =     0.00000000    0.05961032    0.07428410
     atom   11 type  2   force =     0.00000000   -0.05961032    0.07428410
     atom   12 type  2   force =     0.00000000    0.05961032   -0.07428410

     Total force =     0.195743     Total SCF correction =     0.000003


     Computing stress (Cartesian axis) and pressure

          total   stress  (Ry/bohr**3)                   (kbar)     P=       17.98
   0.00016333   0.00000000   0.00000000           24.03        0.00        0.00
   0.00000000   0.00005302   0.00000000            0.00        7.80        0.00
   0.00000000   0.00000000   0.00015039            0.00        0.00       22.12

 
     init_run     :     35.46s CPU     36.30s WALL (       1 calls)
     electrons    :   1625.17s CPU   1642.61s WALL (       1 calls)
     forces       :      7.31s CPU      7.57s WALL (       1 calls)
     stress       :     42.95s CPU     43.58s WALL (       1 calls)

     Called by init_run:
     wfcinit      :     30.48s CPU     30.75s WALL (       1 calls)
     potinit      :      1.44s CPU      1.49s WALL (       1 calls)
     hinit0       :      1.76s CPU      2.01s WALL (       1 calls)

     Called by electrons:
     c_bands      :   1304.61s CPU   1311.90s WALL (      18 calls)
     sum_band     :    287.02s CPU    292.95s WALL (      18 calls)
     v_of_rho     :      8.49s CPU      9.09s WALL (      18 calls)
     newd         :     17.98s CPU     21.77s WALL (      18 calls)
     PAW_pot      :      6.62s CPU      6.64s WALL (      18 calls)
     mix_rho      :      1.56s CPU      1.61s WALL (      18 calls)

     Called by c_bands:
     init_us_2    :     13.47s CPU     13.54s WALL (    2457 calls)
     cegterg      :   1228.82s CPU   1235.42s WALL (    1134 calls)

     Called by *egterg:
     cdiaghg      :     25.65s CPU     25.81s WALL (    7407 calls)
     h_psi        :   1066.71s CPU   1072.98s WALL (    7533 calls)
     s_psi        :     47.46s CPU     47.57s WALL (    7533 calls)
     g_psi        :      2.09s CPU      2.11s WALL (    6336 calls)

     Called by h_psi:
     h_psi:calbec :     40.39s CPU     40.51s WALL (    7533 calls)
     vloc_psi     :    975.15s CPU    981.10s WALL (    7533 calls)
     add_vuspsi   :     47.48s CPU     47.60s WALL (    7533 calls)

     General routines
     calbec       :     54.68s CPU     54.85s WALL (    8982 calls)
     fft          :      7.68s CPU      8.09s WALL (     258 calls)
     ffts         :      0.19s CPU      0.19s WALL (      36 calls)
     fftw         :    977.96s CPU    983.66s WALL (  401984 calls)
     interpolate  :      0.62s CPU      0.63s WALL (      18 calls)
 
     Parallel routines
     fft_scatt_xy :    257.57s CPU    259.15s WALL (  402278 calls)
     fft_scatt_yz :    197.00s CPU    198.40s WALL (  402278 calls)
 
     PWSCF        :  28m31.19s CPU  28m53.77s WALL

 
   This run was terminated on:  15:15:21  19Nov2021            

=------------------------------------------------------------------------------=
   JOB DONE.
=------------------------------------------------------------------------------=
