
     Program PWSCF v.6.7MaX starts on 19Nov2021 at 14:46:27 

     This program is part of the open-source Quantum ESPRESSO suite
     for quantum simulation of materials; please cite
         "P. Giannozzi et al., J. Phys.:Condens. Matter 21 395502 (2009);
         "P. Giannozzi et al., J. Phys.:Condens. Matter 29 465901 (2017);
          URL http://www.quantum-espresso.org", 
     in publications or presentations arising from this work. More details at
     http://www.quantum-espresso.org/quote

     Parallel version (MPI), running on    10 processors

     MPI processes distributed on     1 nodes
     R & G space division:  proc/nbgrp/npool/nimage =      10
     Waiting for input...
     Reading input from standard input

     Current dimensions of program PWSCF are:
     Max number of different atomic species (ntypx) = 10
     Max number of k-points (npk) =  40000
     Max angular momentum in pseudopotentials (lmaxx) =  3
     file Zr.pbe-spn-kjpaw_psl.1.0.0.UPF: wavefunction(s)  4S 4P renormalized
     file Te.pbe-n-kjpaw_psl.1.0.0.UPF: wavefunction(s)  5S 5P renormalized

     Subspace diagonalization in iterative solution of the eigenvalue problem:
     a serial algorithm will be used

     Message from routine setup:
     using ibrav=0 with symmetry is DISCOURAGED, use correct ibrav instead
 
     Parallelization info
     --------------------
     sticks:   dense  smooth     PW     G-vecs:    dense   smooth      PW
     Min         734     293     87               115340    29174    4753
     Max         735     295     88               115345    29176    4760
     Sum        7345    2937    873              1153415   291749   47557
 


     bravais-lattice index     =            0
     lattice parameter (alat)  =      15.5510  a.u.
     unit-cell volume          =    3018.5011 (a.u.)^3
     number of atoms/cell      =           12
     number of atomic types    =            2
     number of electrons       =        84.00
     number of Kohn-Sham states=           50
     kinetic-energy cutoff     =      80.0000  Ry
     charge density cutoff     =     800.0000  Ry
     scf convergence threshold =      1.0E-10
     mixing beta               =       0.7000
     number of iterations used =            8  plain     mixing
     Exchange-correlation= SLA  PW   PBX  PBC
                           (   1   4   3   4   0   0   0)

     celldm(1)=  15.551040  celldm(2)=   0.000000  celldm(3)=   0.000000
     celldm(4)=   0.000000  celldm(5)=   0.000000  celldm(6)=   0.000000

     crystal axes: (cart. coord. in units of alat)
               a(1) = (   0.246007  -0.969268   0.000000 )  
               a(2) = (   0.246007   0.969268   0.000000 )  
               a(3) = (   0.000000   0.000000   1.683031 )  

     reciprocal axes: (cart. coord. in units 2 pi/alat)
               b(1) = (  2.032465 -0.515853  0.000000 )  
               b(2) = (  2.032465  0.515853  0.000000 )  
               b(3) = (  0.000000  0.000000  0.594166 )  


     PseudoPot. # 1 for Zr read from file:
     pseudo/Zr.pbe-spn-kjpaw_psl.1.0.0.UPF
     MD5 check sum: 02112c41713a0468aff2bb39ef194e36
     Pseudo is Projector augmented-wave + core cor, Zval = 12.0
     Generated using &quot;atomic&quot; code by A. Dal Corso  v.6.2.2
     Shape of augmentation charge: PSQ
     Using radial grid of 1225 points,  6 beta functions with: 
                l(1) =   0
                l(2) =   0
                l(3) =   1
                l(4) =   1
                l(5) =   2
                l(6) =   2
     Q(r) pseudized with 0 coefficients 


     PseudoPot. # 2 for Te read from file:
     pseudo/Te.pbe-n-kjpaw_psl.1.0.0.UPF
     MD5 check sum: 66247bff2bd9dbf220fbb0bf5ab56e9d
     Pseudo is Projector augmented-wave + core cor, Zval =  6.0
     Generated using &quot;atomic&quot; code by A. Dal Corso  v.6.3
     Shape of augmentation charge: PSQ
     Using radial grid of 1245 points,  6 beta functions with: 
                l(1) =   0
                l(2) =   0
                l(3) =   1
                l(4) =   1
                l(5) =   2
                l(6) =   2
     Q(r) pseudized with 0 coefficients 


     atomic species   valence    mass     pseudopotential
        Zr            12.00    91.22000     Zr( 1.00)
        Te             6.00   127.60000     Te( 1.00)

      8 Sym. Ops., with inversion, found ( 4 have fractional translation)



   Cartesian axes

     site n.     atom                  positions (alat units)
         1           Zr  tau(   1) = (   0.0000000   0.6114846   0.4207578  )
         2           Zr  tau(   2) = (   0.2460067   0.3577835   1.2622733  )
         3           Te  tau(   3) = (   0.2460067   0.3343665   0.4207578  )
         4           Te  tau(   4) = (   0.0000000   0.6349016   1.2622733  )
         5           Te  tau(   5) = (   0.2460067   0.8071505   0.2502372  )
         6           Te  tau(   6) = (   0.0000000   0.1621176   1.4327938  )
         7           Te  tau(   7) = (   0.2460067   0.8071505   0.5912783  )
         8           Te  tau(   8) = (   0.0000000   0.1621176   1.0917527  )
         9           Te  tau(   9) = (   0.0000000   0.4045960   0.7210594  )
        10           Te  tau(  10) = (   0.2460067   0.5646721   0.9619716  )
        11           Te  tau(  11) = (   0.0000000   0.4045960   0.1204561  )
        12           Te  tau(  12) = (   0.2460067   0.5646721   1.5625750  )

     number of k points=    63  Methfessel-Paxton smearing, width (Ry)=  0.0030
                       cart. coord. in units 2pi/alat
        k(    1) = (   0.0000000   0.0000000   0.0000000), wk =   0.0078125
        k(    2) = (   0.0000000   0.0000000   0.1485415), wk =   0.0156250
        k(    3) = (   0.0000000   0.0000000  -0.2970830), wk =   0.0078125
        k(    4) = (   0.2540581   0.0644816   0.0000000), wk =   0.0312500
        k(    5) = (   0.2540581   0.0644816   0.1485415), wk =   0.0625000
        k(    6) = (   0.2540581   0.0644816  -0.2970830), wk =   0.0312500
        k(    7) = (   0.5081162   0.1289633   0.0000000), wk =   0.0312500
        k(    8) = (   0.5081162   0.1289633   0.1485415), wk =   0.0625000
        k(    9) = (   0.5081162   0.1289633  -0.2970830), wk =   0.0312500
        k(   10) = (   0.7621743   0.1934449   0.0000000), wk =   0.0312500
        k(   11) = (   0.7621743   0.1934449   0.1485415), wk =   0.0625000
        k(   12) = (   0.7621743   0.1934449  -0.2970830), wk =   0.0312500
        k(   13) = (  -1.0162324  -0.2579266   0.0000000), wk =   0.0156250
        k(   14) = (  -1.0162324  -0.2579266   0.1485415), wk =   0.0312500
        k(   15) = (  -1.0162324  -0.2579266  -0.2970830), wk =   0.0156250
        k(   16) = (   0.5081162   0.0000000   0.0000000), wk =   0.0156250
        k(   17) = (   0.5081162   0.0000000   0.1485415), wk =   0.0312500
        k(   18) = (   0.5081162   0.0000000  -0.2970830), wk =   0.0156250
        k(   19) = (   0.7621743   0.0644816   0.0000000), wk =   0.0312500
        k(   20) = (   0.7621743   0.0644816   0.1485415), wk =   0.0625000
        k(   21) = (   0.7621743   0.0644816  -0.2970830), wk =   0.0312500
        k(   22) = (   1.0162324   0.1289633   0.0000000), wk =   0.0312500
        k(   23) = (   1.0162324   0.1289633   0.1485415), wk =   0.0625000
        k(   24) = (   1.0162324   0.1289633  -0.2970830), wk =   0.0312500
        k(   25) = (  -0.7621743  -0.3224082   0.0000000), wk =   0.0312500
        k(   26) = (  -0.7621743  -0.3224082   0.1485415), wk =   0.0625000
        k(   27) = (  -0.7621743  -0.3224082  -0.2970830), wk =   0.0312500
        k(   28) = (  -0.5081162  -0.2579266   0.0000000), wk =   0.0312500
        k(   29) = (  -0.5081162  -0.2579266   0.1485415), wk =   0.0625000
        k(   30) = (  -0.5081162  -0.2579266  -0.2970830), wk =   0.0312500
        k(   31) = (  -0.2540581  -0.1934449   0.0000000), wk =   0.0312500
        k(   32) = (  -0.2540581  -0.1934449   0.1485415), wk =   0.0625000
        k(   33) = (  -0.2540581  -0.1934449  -0.2970830), wk =   0.0312500
        k(   34) = (   0.0000000  -0.1289633   0.0000000), wk =   0.0156250
        k(   35) = (   0.0000000  -0.1289633   0.1485415), wk =   0.0312500
        k(   36) = (   0.0000000  -0.1289633  -0.2970830), wk =   0.0156250
        k(   37) = (   1.0162324   0.0000000   0.0000000), wk =   0.0156250
        k(   38) = (   1.0162324   0.0000000   0.1485415), wk =   0.0312500
        k(   39) = (   1.0162324   0.0000000  -0.2970830), wk =   0.0156250
        k(   40) = (   1.2702905   0.0644816   0.0000000), wk =   0.0312500
        k(   41) = (   1.2702905   0.0644816   0.1485415), wk =   0.0625000
        k(   42) = (   1.2702905   0.0644816  -0.2970830), wk =   0.0312500
        k(   43) = (  -0.5081162  -0.3868899   0.0000000), wk =   0.0312500
        k(   44) = (  -0.5081162  -0.3868899   0.1485415), wk =   0.0625000
        k(   45) = (  -0.5081162  -0.3868899  -0.2970830), wk =   0.0312500
        k(   46) = (  -0.2540581  -0.3224082   0.0000000), wk =   0.0312500
        k(   47) = (  -0.2540581  -0.3224082   0.1485415), wk =   0.0625000
        k(   48) = (  -0.2540581  -0.3224082  -0.2970830), wk =   0.0312500
        k(   49) = (   0.0000000  -0.2579266   0.0000000), wk =   0.0156250
        k(   50) = (   0.0000000  -0.2579266   0.1485415), wk =   0.0312500
        k(   51) = (   0.0000000  -0.2579266  -0.2970830), wk =   0.0156250
        k(   52) = (   1.5243485   0.0000000   0.0000000), wk =   0.0156250
        k(   53) = (   1.5243485   0.0000000   0.1485415), wk =   0.0312500
        k(   54) = (   1.5243485   0.0000000  -0.2970830), wk =   0.0156250
        k(   55) = (  -0.2540581  -0.4513715   0.0000000), wk =   0.0312500
        k(   56) = (  -0.2540581  -0.4513715   0.1485415), wk =   0.0625000
        k(   57) = (  -0.2540581  -0.4513715  -0.2970830), wk =   0.0312500
        k(   58) = (   0.0000000  -0.3868899   0.0000000), wk =   0.0156250
        k(   59) = (   0.0000000  -0.3868899   0.1485415), wk =   0.0312500
        k(   60) = (   0.0000000  -0.3868899  -0.2970830), wk =   0.0156250
        k(   61) = (  -2.0324647   0.0000000   0.0000000), wk =   0.0078125
        k(   62) = (  -2.0324647   0.0000000   0.1485415), wk =   0.0156250
        k(   63) = (  -2.0324647   0.0000000  -0.2970830), wk =   0.0078125

     Dense  grid:  1153415 G-vectors     FFT dimensions: ( 144, 144, 240)

     Smooth grid:   291749 G-vectors     FFT dimensions: (  90,  90, 150)

     Estimated max dynamical RAM per process >     657.19 MB

     Estimated total dynamical RAM >       6.42 GB

     Initial potential from superposition of free atoms

     starting charge   83.99353, renormalised to   84.00000
     Starting wfcs are   66 randomized atomic wfcs
     Checking if some PAW data can be deallocated... 

     total cpu time spent up to now is       41.0 secs

     Self-consistent Calculation

     iteration #  1     ecut=    80.00 Ry     beta= 0.70
     Davidson diagonalization with overlap
     ethr =  1.00E-02,  avg # of iterations =  2.0

     Threshold (ethr) on eigenvalues was too large:
     Diagonalizing with lowered threshold

     Davidson diagonalization with overlap
     ethr =  3.77E-04,  avg # of iterations =  4.1

     total cpu time spent up to now is      202.8 secs

     total energy              =   -4240.71592719 Ry
     estimated scf accuracy    <       0.42618054 Ry

     iteration #  2     ecut=    80.00 Ry     beta= 0.70
     Davidson diagonalization with overlap
     ethr =  5.07E-04,  avg # of iterations =  7.7

     total cpu time spent up to now is      314.3 secs

     total energy              =   -4240.62129557 Ry
     estimated scf accuracy    <       2.17970839 Ry

     iteration #  3     ecut=    80.00 Ry     beta= 0.70
     Davidson diagonalization with overlap
     ethr =  5.07E-04,  avg # of iterations =  5.1

     total cpu time spent up to now is      409.4 secs

     total energy              =   -4240.91372350 Ry
     estimated scf accuracy    <       0.02172285 Ry

     iteration #  4     ecut=    80.00 Ry     beta= 0.70
     Davidson diagonalization with overlap
     c_bands:  2 eigenvalues not converged
     c_bands:  1 eigenvalues not converged
     c_bands:  1 eigenvalues not converged
     c_bands:  2 eigenvalues not converged
     c_bands:  1 eigenvalues not converged
     c_bands:  1 eigenvalues not converged
     c_bands:  1 eigenvalues not converged
     c_bands:  2 eigenvalues not converged
     c_bands:  1 eigenvalues not converged
     c_bands:  1 eigenvalues not converged
     c_bands:  1 eigenvalues not converged
     c_bands:  1 eigenvalues not converged
     c_bands:  1 eigenvalues not converged
     c_bands:  1 eigenvalues not converged
     ethr =  2.59E-05,  avg # of iterations = 16.5

     total cpu time spent up to now is      572.8 secs

     total energy              =   -4240.93275135 Ry
     estimated scf accuracy    <       0.10687153 Ry

     iteration #  5     ecut=    80.00 Ry     beta= 0.70
     Davidson diagonalization with overlap
     ethr =  2.59E-05,  avg # of iterations =  4.7

     total cpu time spent up to now is      656.2 secs

     total energy              =   -4240.93499576 Ry
     estimated scf accuracy    <       0.02486253 Ry

     iteration #  6     ecut=    80.00 Ry     beta= 0.70
     Davidson diagonalization with overlap
     ethr =  2.59E-05,  avg # of iterations =  2.8

     total cpu time spent up to now is      729.9 secs

     total energy              =   -4240.93603561 Ry
     estimated scf accuracy    <       0.00368085 Ry

     iteration #  7     ecut=    80.00 Ry     beta= 0.70
     Davidson diagonalization with overlap
     c_bands:  1 eigenvalues not converged
     c_bands:  2 eigenvalues not converged
     c_bands:  1 eigenvalues not converged
     c_bands:  1 eigenvalues not converged
     c_bands:  1 eigenvalues not converged
     ethr =  4.38E-06,  avg # of iterations = 12.4

     total cpu time spent up to now is      851.1 secs

     total energy              =   -4240.93795318 Ry
     estimated scf accuracy    <       0.00280663 Ry

     iteration #  8     ecut=    80.00 Ry     beta= 0.70
     Davidson diagonalization with overlap
     c_bands:  1 eigenvalues not converged
     c_bands:  1 eigenvalues not converged
     ethr =  3.34E-06,  avg # of iterations =  2.9

     total cpu time spent up to now is      921.8 secs

     total energy              =   -4240.93795849 Ry
     estimated scf accuracy    <       0.00064135 Ry

     iteration #  9     ecut=    80.00 Ry     beta= 0.70
     Davidson diagonalization with overlap
     ethr =  7.64E-07,  avg # of iterations =  6.1

     total cpu time spent up to now is     1005.3 secs

     total energy              =   -4240.93808668 Ry
     estimated scf accuracy    <       0.00000965 Ry

     iteration # 10     ecut=    80.00 Ry     beta= 0.70
     Davidson diagonalization with overlap
     c_bands:  1 eigenvalues not converged
     ethr =  1.15E-08,  avg # of iterations = 10.8

     total cpu time spent up to now is     1140.0 secs

     total energy              =   -4240.93811095 Ry
     estimated scf accuracy    <       0.00001845 Ry

     iteration # 11     ecut=    80.00 Ry     beta= 0.70
     Davidson diagonalization with overlap
     ethr =  1.15E-08,  avg # of iterations =  3.5

     total cpu time spent up to now is     1221.0 secs

     total energy              =   -4240.93811397 Ry
     estimated scf accuracy    <       0.00000004 Ry

     iteration # 12     ecut=    80.00 Ry     beta= 0.70
     Davidson diagonalization with overlap
     c_bands:  1 eigenvalues not converged
     c_bands:  1 eigenvalues not converged
     ethr =  4.24E-11,  avg # of iterations = 12.8

     total cpu time spent up to now is     1392.2 secs

     total energy              =   -4240.93811407 Ry
     estimated scf accuracy    <       0.00000105 Ry

     iteration # 13     ecut=    80.00 Ry     beta= 0.70
     Davidson diagonalization with overlap
     c_bands:  1 eigenvalues not converged
     c_bands:  1 eigenvalues not converged
     ethr =  4.24E-11,  avg # of iterations =  7.1

     total cpu time spent up to now is     1507.5 secs

     total energy              =   -4240.93811419 Ry
     estimated scf accuracy    <          4.6E-09 Ry

     iteration # 14     ecut=    80.00 Ry     beta= 0.70
     Davidson diagonalization with overlap
     ethr =  5.52E-12,  avg # of iterations =  6.1

     total cpu time spent up to now is     1608.5 secs

     total energy              =   -4240.93811419 Ry
     estimated scf accuracy    <          2.5E-09 Ry

     iteration # 15     ecut=    80.00 Ry     beta= 0.70
     Davidson diagonalization with overlap
     ethr =  2.99E-12,  avg # of iterations =  2.0

     total cpu time spent up to now is     1676.4 secs

     total energy              =   -4240.93811419 Ry
     estimated scf accuracy    <          3.5E-10 Ry

     iteration # 16     ecut=    80.00 Ry     beta= 0.70
     Davidson diagonalization with overlap
     ethr =  4.12E-13,  avg # of iterations =  5.9

     total cpu time spent up to now is     1772.9 secs

     total energy              =   -4240.93811419 Ry
     estimated scf accuracy    <          1.2E-10 Ry

     iteration # 17     ecut=    80.00 Ry     beta= 0.70
     Davidson diagonalization with overlap
     ethr =  1.46E-13,  avg # of iterations =  1.6

     total cpu time spent up to now is     1839.6 secs

     End of self-consistent calculation

          k = 0.0000 0.0000 0.0000 ( 36359 PWs)   bands (ev):

   -44.1545 -44.1545 -22.2973 -22.2972 -22.1934 -22.1934 -22.0756 -22.0756
    -7.6520  -7.1695  -6.9732  -6.7745  -6.5643  -5.3172  -5.1196  -4.9070
    -4.8511  -3.8647   0.4498   0.6804   0.7766   1.0564   1.4889   1.5971
     2.4164   2.4935   2.6154   3.0011   3.0416   3.0955   3.0978   3.5028
     3.5571   3.6012   3.8575   4.0408   4.1039   4.2855   4.3185   4.6243
     5.1483   5.5562   5.5665   5.6113   5.8530   6.0441   6.3998   6.7946
     6.9355   7.2982

          k = 0.0000 0.0000 0.1485 ( 36415 PWs)   bands (ev):

   -44.1546 -44.1545 -22.2973 -22.2972 -22.1934 -22.1934 -22.0756 -22.0756
    -7.6129  -7.3208  -6.8702  -6.7822  -6.4436  -5.6943  -4.9275  -4.8630
    -4.7070  -3.9814   0.4906   0.7183   0.9105   1.0548   1.0560   2.0304
     2.1182   2.4406   2.5804   3.0433   3.0764   3.0854   3.3265   3.3652
     3.6704   3.7020   3.8364   4.0318   4.0567   4.3052   4.3307   4.6414
     4.9294   5.0604   5.7118   5.9172   6.0387   6.0647   6.5896   6.6995
     6.7708   7.2769

          k = 0.0000 0.0000-0.2971 ( 36410 PWs)   bands (ev):

   -44.1546 -44.1546 -22.2972 -22.2972 -22.1934 -22.1934 -22.0756 -22.0756
    -7.4983  -7.4983  -6.8072  -6.8072  -6.1171  -6.1171  -4.8920  -4.8920
    -4.2916  -4.2916   0.6721   0.6721   0.8526   0.8526   1.4503   1.4503
     2.5051   2.5051   2.6986   2.6986   3.0523   3.0523   3.3605   3.3605
     3.8257   3.8257   3.9037   3.9037   4.3174   4.3174   4.4222   4.4222
     4.7216   4.7216   5.9621   5.9621   6.2423   6.2423   6.3796   6.3796
     7.1631   7.1631

          k = 0.2541 0.0645 0.0000 ( 36396 PWs)   bands (ev):

   -44.1542 -44.1542 -22.2953 -22.2953 -22.2034 -22.2034 -22.0744 -22.0743
    -7.5384  -7.0857  -6.8714  -6.7287  -6.5054  -5.2834  -5.1069  -4.8663
    -4.8096  -4.0019   0.5372   0.8159   0.9138   1.1745   1.2807   1.4902
     1.9352   2.1141   2.2187   2.5242   2.5924   3.0066   3.4920   3.6521
     3.6714   3.6998   3.7433   3.8049   4.0281   4.1441   4.2119   4.2645
     4.4620   4.7149   5.6831   5.9958   6.2914   6.5415   6.6190   6.8352
     7.0014   7.1428

          k = 0.2541 0.0645 0.1485 ( 36423 PWs)   bands (ev):

   -44.1542 -44.1542 -22.2953 -22.2953 -22.2034 -22.2034 -22.0744 -22.0743
    -7.5004  -7.2199  -6.8006  -6.7353  -6.3725  -5.6391  -4.9054  -4.8235
    -4.7083  -4.0954   0.5656   0.8566   0.9787   0.9974   1.1388   1.6069
     1.8678   2.3116   2.4837   2.5413   2.5703   2.9172   3.2548   3.3009
     3.6523   3.6687   3.8243   3.8857   3.9976   4.0877   4.2238   4.2816
     4.6963   5.0475   5.8026   5.8155   6.2190   6.2751   6.4801   6.6718
     7.2640   7.2881

          k = 0.2541 0.0645-0.2971 ( 36436 PWs)   bands (ev):

   -44.1542 -44.1542 -22.2953 -22.2953 -22.2034 -22.2034 -22.0743 -22.0743
    -7.3892  -7.3892  -6.7556  -6.7556  -6.0456  -6.0456  -4.8581  -4.8581
    -4.3531  -4.3531   0.7038   0.7038   0.9602   0.9602   1.2952   1.2952
     2.2893   2.2893   2.6025   2.6025   2.7001   2.7001   3.0906   3.0906
     3.5879   3.5879   3.8542   3.8542   4.0257   4.0257   4.2773   4.2773
     5.1902   5.1902   5.7402   5.7402   6.0760   6.0760   6.4702   6.4702
     7.4374   7.4375

          k = 0.5081 0.1290 0.0000 ( 36499 PWs)   bands (ev):

   -44.1533 -44.1532 -22.2906 -22.2906 -22.2275 -22.2275 -22.0713 -22.0713
    -7.2213  -6.8884  -6.5990  -6.5791  -6.3120  -5.2265  -5.1213  -4.7591
    -4.7071  -4.4168   0.5113   0.7299   0.7378   1.1805   1.3050   1.4999
     1.6607   1.8280   1.9786   2.1525   2.1707   2.2833   2.4283   3.2317
     3.3488   3.4148   3.4572   3.5647   3.7668   3.8497   3.9650   4.1536
     4.6398   5.3284   5.3726   5.8609   5.9237   6.5378   6.5506   6.8383
     7.3786   7.5636

          k = 0.5081 0.1290 0.1485 ( 36476 PWs)   bands (ev):

   -44.1533 -44.1532 -22.2906 -22.2906 -22.2275 -22.2275 -22.0713 -22.0713
    -7.1877  -6.9625  -6.6061  -6.5994  -6.1551  -5.5077  -4.9267  -4.7356
    -4.6971  -4.4496   0.5126   0.7437   0.8868   1.0855   1.2189   1.4300
     1.4727   1.6742   2.0381   2.0689   2.3254   2.5518   2.8385   3.2628
     3.3408   3.4023   3.4728   3.5737   3.6359   3.7803   3.8473   4.2139
     4.4039   4.5924   6.0154   6.0833   6.2168   6.5460   6.5922   6.7162
     7.2235   7.4800

          k = 0.5081 0.1290-0.2971 ( 36466 PWs)   bands (ev):

   -44.1532 -44.1532 -22.2906 -22.2906 -22.2275 -22.2275 -22.0713 -22.0713
    -7.0924  -7.0924  -6.6088  -6.6088  -5.8502  -5.8502  -4.8072  -4.8072
    -4.5537  -4.5537   0.6181   0.6181   1.0966   1.0966   1.2527   1.2527
     1.3628   1.3628   2.0593   2.0593   2.7784   2.7784   3.1066   3.1066
     3.3320   3.3320   3.5460   3.5460   3.7044   3.7044   3.8378   3.8378
     4.3015   4.3015   6.2468   6.2468   6.5328   6.5328   6.7704   6.7704
     7.0868   7.0868

          k = 0.7622 0.1934 0.0000 ( 36521 PWs)   bands (ev):

   -44.1523 -44.1523 -22.2857 -22.2857 -22.2516 -22.2516 -22.0683 -22.0683
    -6.8359  -6.7173  -6.3372  -6.1428  -5.9600  -5.2858  -5.2759  -5.0558
    -4.6376  -4.6026   0.0050   0.2753   0.6568   1.1504   1.1590   1.2319
     1.4768   1.5904   1.9079   1.9519   2.2679   2.4262   2.5078   2.7422
     2.7678   3.2522   3.2886   3.3511   3.6412   3.6634   3.7788   3.8335
     3.9849   4.5665   5.7560   6.1653   6.2449   6.6771   6.7216   6.8156
     7.1999   7.5563

          k = 0.7622 0.1934 0.1485 ( 36503 PWs)   bands (ev):

   -44.1523 -44.1523 -22.2857 -22.2857 -22.2516 -22.2516 -22.0683 -22.0683
    -6.8183  -6.7334  -6.3310  -6.2261  -5.8248  -5.4184  -5.1946  -5.0763
    -4.6268  -4.6031   0.0788   0.3823   0.5383   0.9598   1.1620   1.2053
     1.4924   1.6652   1.7225   2.0863   2.1320   2.6435   2.6763   2.7934
     2.8619   3.1530   3.2721   3.3718   3.4720   3.6400   3.6807   3.8899
     4.0036   4.7414   5.3812   6.2378   6.5422   6.5849   6.7374   6.8986
     6.9747   7.4590

          k = 0.7622 0.1934-0.2971 ( 36522 PWs)   bands (ev):

   -44.1523 -44.1523 -22.2857 -22.2857 -22.2516 -22.2516 -22.0683 -22.0683
    -6.7752  -6.7752  -6.3014  -6.3014  -5.6126  -5.6126  -5.1281  -5.1281
    -4.6101  -4.6101   0.2763   0.2763   0.6992   0.6992   1.0692   1.0692
     1.5752   1.5752   1.9772   1.9772   2.3719   2.3719   2.7956   2.7956
     2.9917   2.9917   3.4018   3.4018   3.5682   3.5682   3.7893   3.7893
     4.1957   4.1957   5.9740   5.9740   6.3651   6.3651   6.8259   6.8259
     7.2993   7.2993

          k =-1.0162-0.2579 0.0000 ( 36506 PWs)   bands (ev):

   -44.1519 -44.1519 -22.2835 -22.2835 -22.2617 -22.2617 -22.0670 -22.0670
    -6.6844  -6.6643  -5.7795  -5.7687  -5.6674  -5.6546  -5.5430  -5.5429
    -4.5798  -4.5614   0.0846   0.1112   0.4341   0.4529   1.0129   1.0209
     1.4689   1.6755   2.2242   2.3440   2.3455   2.3461   2.7932   2.8284
     2.8311   2.9383   3.2562   3.2784   3.2848   3.4989   3.5949   3.6305
     3.8404   3.9267   6.3591   6.3894   6.4496   6.5346   6.9264   6.9928
     7.0035   7.0081

          k =-1.0162-0.2579 0.1485 ( 36506 PWs)   bands (ev):

   -44.1519 -44.1519 -22.2835 -22.2835 -22.2617 -22.2617 -22.0670 -22.0670
    -6.6808  -6.6666  -5.7843  -5.7751  -5.6805  -5.6752  -5.5173  -5.5152
    -4.5830  -4.5700  -0.0029   0.0060   0.6508   0.6554   1.0325   1.0593
     1.4638   1.5766   1.9216   1.9889   2.3650   2.3754   2.7526   2.7588
     2.9519   2.9672   3.1797   3.2237   3.5429   3.5515   3.7098   3.7327
     4.1113   4.1156   5.8510   5.8589   6.3816   6.4538   6.8914   6.9302
     7.2219   7.2451

          k =-1.0162-0.2579-0.2971 ( 36528 PWs)   bands (ev):

   -44.1519 -44.1519 -22.2835 -22.2835 -22.2617 -22.2617 -22.0670 -22.0670
    -6.6731  -6.6731  -5.7859  -5.7859  -5.6890  -5.6890  -5.4946  -5.4946
    -4.5825  -4.5825  -0.0579  -0.0579   0.9017   0.9017   1.0486   1.0486
     1.5285   1.5285   1.5935   1.5935   2.3669   2.3669   2.7879   2.7879
     2.9284   2.9284   3.2060   3.2060   3.5895   3.5895   3.7720   3.7720
     4.6045   4.6045   5.2644   5.2644   6.3481   6.3481   6.9295   6.9295
     7.2896   7.2896

          k = 0.5081 0.0000 0.0000 ( 36503 PWs)   bands (ev):

   -44.1533 -44.1532 -22.2906 -22.2906 -22.2275 -22.2275 -22.0713 -22.0713
    -7.2274  -6.8908  -6.5916  -6.5803  -6.3072  -5.2274  -5.1177  -4.7551
    -4.7123  -4.4163   0.5101   0.7267   0.7446   1.1478   1.3001   1.4793
     1.6657   1.8339   1.9903   2.1330   2.1411   2.2742   2.4367   3.2135
     3.3576   3.4025   3.5122   3.5888   3.7739   3.8357   4.0041   4.1910
     4.6420   5.3299   5.3785   5.8958   5.9030   6.4986   6.4988   6.8736
     7.4066   7.5707

          k = 0.5081 0.0000 0.1485 ( 36453 PWs)   bands (ev):

   -44.1532 -44.1532 -22.2906 -22.2906 -22.2275 -22.2275 -22.0713 -22.0713
    -7.1937  -6.9670  -6.5985  -6.5952  -6.1540  -5.5085  -4.9205  -4.7374
    -4.6980  -4.4505   0.5107   0.7385   0.8927   1.0872   1.1902   1.4310
     1.4483   1.6702   2.0329   2.0722   2.3266   2.5244   2.8308   3.2491
     3.3361   3.4321   3.4895   3.5940   3.6304   3.8289   3.8451   4.2489
     4.4192   4.5936   6.0163   6.1010   6.2209   6.4950   6.5570   6.7467
     7.2492   7.4841

          k = 0.5081 0.0000-0.2971 ( 36452 PWs)   bands (ev):

   -44.1532 -44.1532 -22.2906 -22.2906 -22.2275 -22.2275 -22.0713 -22.0713
    -7.0982  -7.0982  -6.6017  -6.6017  -5.8509  -5.8509  -4.8030  -4.8030
    -4.5564  -4.5564   0.6137   0.6137   1.0970   1.0970   1.2833   1.2833
     1.3082   1.3082   2.0591   2.0591   2.7693   2.7693   3.0837   3.0837
     3.3256   3.3256   3.6014   3.6014   3.7120   3.7120   3.8412   3.8412
     4.3261   4.3261   6.2623   6.2623   6.4984   6.4984   6.7849   6.7849
     7.0887   7.0887

          k = 0.7622 0.0645 0.0000 ( 36505 PWs)   bands (ev):

   -44.1523 -44.1523 -22.2857 -22.2857 -22.2516 -22.2516 -22.0683 -22.0683
    -6.8453  -6.7156  -6.3278  -6.1454  -5.9592  -5.2809  -5.2766  -5.0554
    -4.6312  -4.6102  -0.0010   0.2870   0.6818   1.1474   1.1849   1.2460
     1.4336   1.5461   1.8853   1.9643   2.2230   2.4021   2.4915   2.7155
     2.7498   3.3087   3.3220   3.3565   3.6030   3.6611   3.8317   3.8579
     4.0034   4.6097   5.7546   6.1811   6.2074   6.6443   6.7719   6.7790
     7.2235   7.6964

          k = 0.7622 0.0645 0.1485 ( 36509 PWs)   bands (ev):

   -44.1523 -44.1523 -22.2857 -22.2857 -22.2516 -22.2516 -22.0683 -22.0683
    -6.8267  -6.7341  -6.3220  -6.2241  -5.8263  -5.4188  -5.1911  -5.0754
    -4.6225  -4.6085   0.0763   0.3894   0.5477   0.9828   1.1621   1.2168
     1.4542   1.6618   1.7482   2.0156   2.0581   2.6548   2.6685   2.7619
     2.8508   3.1534   3.3395   3.3922   3.4334   3.6583   3.7084   3.9072
     4.0509   4.7406   5.4082   6.2219   6.5457   6.5725   6.7547   6.8961
     6.9555   7.4776

          k = 0.7622 0.0645-0.2971 ( 36472 PWs)   bands (ev):

   -44.1523 -44.1523 -22.2857 -22.2857 -22.2516 -22.2516 -22.0683 -22.0683
    -6.7805  -6.7805  -6.2946  -6.2946  -5.6144  -5.6144  -5.1255  -5.1255
    -4.6105  -4.6105   0.2796   0.2796   0.6953   0.6953   1.0951   1.0951
     1.5698   1.5698   1.9266   1.9266   2.3362   2.3362   2.7887   2.7887
     2.9881   2.9881   3.4692   3.4692   3.5646   3.5646   3.7814   3.7814
     4.2203   4.2203   5.9980   5.9980   6.3666   6.3666   6.7913   6.7913
     7.3254   7.3254

          k = 1.0162 0.1290 0.0000 ( 36514 PWs)   bands (ev):

   -44.1519 -44.1519 -22.2835 -22.2835 -22.2617 -22.2617 -22.0670 -22.0670
    -6.6844  -6.6643  -5.7790  -5.7693  -5.6674  -5.6546  -5.5438  -5.5421
    -4.5798  -4.5614   0.0788   0.1172   0.4283   0.4590   1.0078   1.0277
     1.4740   1.6668   2.2280   2.3284   2.3381   2.3529   2.7950   2.8251
     2.8618   2.9335   3.2285   3.2901   3.3005   3.4970   3.5779   3.6433
     3.8250   3.9378   6.3558   6.3939   6.4448   6.5400   6.9366   6.9955
     6.9986   7.0102

          k = 1.0162 0.1290 0.1485 ( 36524 PWs)   bands (ev):

   -44.1519 -44.1519 -22.2835 -22.2835 -22.2617 -22.2617 -22.0670 -22.0670
    -6.6808  -6.6666  -5.7839  -5.7755  -5.6806  -5.6751  -5.5177  -5.5148
    -4.5830  -4.5700  -0.0049   0.0076   0.6496   0.6573   1.0367   1.0561
     1.4680   1.5741   1.9264   1.9791   2.3577   2.3715   2.7077   2.8130
     2.9637   2.9864   3.1532   3.2261   3.5295   3.5888   3.7003   3.7092
     4.0990   4.1339   5.8399   5.8723   6.3789   6.4563   6.8983   6.9291
     7.2254   7.2418

          k = 1.0162 0.1290-0.2971 ( 36516 PWs)   bands (ev):

   -44.1519 -44.1519 -22.2835 -22.2835 -22.2617 -22.2617 -22.0670 -22.0670
    -6.6731  -6.6731  -5.7859  -5.7859  -5.6890  -5.6890  -5.4946  -5.4946
    -4.5825  -4.5825  -0.0581  -0.0581   0.9009   0.9009   1.0510   1.0510
     1.5269   1.5269   1.5955   1.5955   2.3566   2.3566   2.7709   2.7709
     2.9786   2.9786   3.1816   3.1816   3.5961   3.5961   3.7640   3.7640
     4.6048   4.6048   5.2663   5.2663   6.3478   6.3478   6.9319   6.9319
     7.2896   7.2896

          k =-0.7622-0.3224 0.0000 ( 36511 PWs)   bands (ev):

   -44.1523 -44.1523 -22.2857 -22.2857 -22.2516 -22.2516 -22.0683 -22.0683
    -6.8210  -6.7211  -6.3506  -6.1390  -5.9614  -5.2929  -5.2749  -5.0562
    -4.6429  -4.5955   0.0137   0.2593   0.6236   1.1239   1.1752   1.2125
     1.4996   1.6595   1.9363   1.9542   2.3461   2.4438   2.5322   2.7716
     2.7953   3.1669   3.2597   3.3765   3.5966   3.6559   3.7763   3.8051
     3.9504   4.4968   5.7584   6.1592   6.2892   6.6404   6.7272   6.8829
     7.1607   7.5571

          k =-0.7622-0.3224 0.1485 ( 36492 PWs)   bands (ev):

   -44.1523 -44.1523 -22.2857 -22.2857 -22.2516 -22.2516 -22.0683 -22.0683
    -6.8050  -6.7334  -6.3440  -6.2291  -5.8226  -5.4179  -5.1995  -5.0776
    -4.6304  -4.5981   0.0819   0.3739   0.5235   0.9338   1.1614   1.1947
     1.5457   1.6645   1.6937   2.1887   2.2375   2.6331   2.6859   2.8254
     2.8746   3.1735   3.1808   3.3556   3.4791   3.6243   3.6536   3.8617
     3.9243   4.7413   5.3449   6.2637   6.5213   6.5963   6.7243   6.9251
     6.9973   7.4268

          k =-0.7622-0.3224-0.2971 ( 36508 PWs)   bands (ev):

   -44.1523 -44.1523 -22.2857 -22.2857 -22.2516 -22.2516 -22.0683 -22.0683
    -6.7674  -6.7674  -6.3113  -6.3113  -5.6099  -5.6099  -5.1316  -5.1316
    -4.6095  -4.6095   0.2714   0.2714   0.7047   0.7047   1.0396   1.0396
     1.5805   1.5805   2.0365   2.0365   2.4395   2.4395   2.8089   2.8089
     2.9951   2.9951   3.3091   3.3091   3.5729   3.5729   3.7857   3.7857
     4.1627   4.1627   5.9424   5.9424   6.3614   6.3614   6.8847   6.8847
     7.2547   7.2547

          k =-0.5081-0.2579 0.0000 ( 36480 PWs)   bands (ev):

   -44.1533 -44.1532 -22.2906 -22.2906 -22.2275 -22.2275 -22.0713 -22.0713
    -7.2057  -6.8832  -6.6165  -6.5761  -6.3239  -5.2243  -5.1300  -4.7653
    -4.6982  -4.4178   0.5161   0.7221   0.7306   1.2750   1.3158   1.5514
     1.6538   1.8213   1.9526   2.1844   2.2387   2.3005   2.4114   3.2797
     3.3353   3.3461   3.4377   3.4741   3.7370   3.8584   3.9081   4.0782
     4.6314   5.3202   5.3609   5.7777   5.9767   6.6365   6.6708   6.7539
     7.3058   7.5503

          k =-0.5081-0.2579 0.1485 ( 36485 PWs)   bands (ev):

   -44.1533 -44.1532 -22.2906 -22.2906 -22.2275 -22.2275 -22.0713 -22.0713
    -7.1723  -6.9515  -6.6236  -6.6114  -6.1576  -5.5057  -4.9410  -4.7329
    -4.6944  -4.4477   0.5178   0.7520   0.8730   1.0817   1.2989   1.4299
     1.5348   1.6805   2.0498   2.0654   2.3234   2.6109   2.8562   3.2928
     3.3082   3.3523   3.4581   3.4904   3.6336   3.7373   3.8274   4.1397
     4.3590   4.5888   5.9924   6.0604   6.2098   6.6387   6.6653   6.6888
     7.1582   7.4732

          k =-0.5081-0.2579-0.2971 ( 36478 PWs)   bands (ev):

   -44.1532 -44.1532 -22.2906 -22.2906 -22.2275 -22.2275 -22.0713 -22.0713
    -7.0779  -7.0779  -6.6268  -6.6268  -5.8483  -5.8483  -4.8171  -4.8171
    -4.5474  -4.5474   0.6281   0.6281   1.0948   1.0948   1.2276   1.2276
     1.4541   1.4541   2.0583   2.0583   2.8027   2.8027   3.1651   3.1651
     3.3448   3.3448   3.4047   3.4047   3.6951   3.6951   3.8263   3.8263
     4.2403   4.2403   6.2084   6.2084   6.6057   6.6057   6.7433   6.7433
     7.0871   7.0871

          k =-0.2541-0.1934 0.0000 ( 36410 PWs)   bands (ev):

   -44.1542 -44.1542 -22.2953 -22.2953 -22.2034 -22.2034 -22.0744 -22.0743
    -7.5274  -7.0756  -6.8693  -6.7431  -6.5218  -5.2822  -5.1143  -4.8736
    -4.8003  -4.0029   0.5681   0.8900   0.9231   1.1994   1.3125   1.4907
     1.9571   2.1333   2.2234   2.4886   2.5724   3.0755   3.3990   3.5475
     3.5993   3.6898   3.7852   3.8029   3.9534   4.1377   4.1876   4.2279
     4.4014   4.6861   5.7324   6.0118   6.3348   6.5872   6.6036   6.8533
     6.9968   7.0667

          k =-0.2541-0.1934 0.1485 ( 36427 PWs)   bands (ev):

   -44.1542 -44.1542 -22.2953 -22.2953 -22.2034 -22.2034 -22.0744 -22.0743
    -7.4893  -7.2090  -6.8085  -6.7493  -6.3799  -5.6379  -4.9234  -4.8188
    -4.7016  -4.0952   0.5911   0.9130   1.0078   1.0335   1.1612   1.6239
     1.8695   2.3136   2.5009   2.5047   2.5743   2.9125   3.2571   3.3334
     3.5229   3.6463   3.7291   3.8847   3.9707   4.0710   4.1776   4.2278
     4.6801   5.0293   5.7857   5.8317   6.1898   6.3250   6.5600   6.6857
     7.2192   7.2814

          k =-0.2541-0.1934-0.2971 ( 36422 PWs)   bands (ev):

   -44.1542 -44.1542 -22.2953 -22.2953 -22.2034 -22.2034 -22.0743 -22.0743
    -7.3781  -7.3781  -6.7692  -6.7692  -6.0461  -6.0461  -4.8643  -4.8643
    -4.3500  -4.3500   0.7223   0.7223   1.0259   1.0259   1.3047   1.3047
     2.2883   2.2883   2.5713   2.5713   2.7131   2.7131   3.1216   3.1216
     3.5097   3.5097   3.8000   3.8000   4.0176   4.0176   4.2203   4.2203
     5.1860   5.1860   5.7006   5.7006   6.0666   6.0666   6.5593   6.5593
     7.4114   7.4114

          k = 0.0000-0.1290 0.0000 ( 36417 PWs)   bands (ev):

   -44.1546 -44.1545 -22.2973 -22.2972 -22.1934 -22.1934 -22.0756 -22.0756
    -7.6462  -7.1632  -6.9721  -6.7826  -6.5743  -5.3167  -5.1234  -4.9125
    -4.8448  -3.8654   0.4749   0.7226   0.7822   1.0611   1.5132   1.6075
     2.4199   2.4940   2.6225   3.0089   3.0370   3.0959   3.1335   3.4546
     3.4892   3.5905   3.7869   4.0151   4.1039   4.2333   4.2686   4.6255
     5.1405   5.5099   5.5925   5.6185   5.8667   6.0870   6.4522   6.7658
     6.9362   7.2795

          k = 0.0000-0.1290 0.1485 ( 36419 PWs)   bands (ev):

   -44.1546 -44.1546 -22.2973 -22.2972 -22.1934 -22.1934 -22.0756 -22.0756
    -7.6071  -7.3148  -6.8735  -6.7899  -6.4489  -5.6939  -4.9382  -4.8595
    -4.7034  -3.9813   0.5124   0.7606   0.9263   1.0471   1.0810   2.0389
     2.1333   2.4445   2.5867   3.0389   3.0735   3.1078   3.2834   3.3385
     3.6672   3.6932   3.7623   3.9804   4.0551   4.2587   4.2841   4.6426
     4.9267   5.0470   5.7197   5.9202   6.0520   6.0807   6.5778   6.7388
     6.7717   7.2631

          k = 0.0000-0.1290-0.2971 ( 36464 PWs)   bands (ev):

   -44.1546 -44.1546 -22.2972 -22.2972 -22.1934 -22.1934 -22.0756 -22.0756
    -7.4924  -7.4924  -6.8143  -6.8143  -6.1179  -6.1179  -4.8952  -4.8952
    -4.2901  -4.2901   0.7000   0.7000   0.8694   0.8694   1.4597   1.4597
     2.5100   2.5100   2.7091   2.7091   3.0484   3.0484   3.3237   3.3237
     3.7955   3.7955   3.8983   3.8983   4.2331   4.2331   4.4348   4.4348
     4.7219   4.7219   5.9496   5.9496   6.2662   6.2662   6.3811   6.3811
     7.1672   7.1672

          k = 1.0162 0.0000 0.0000 ( 36499 PWs)   bands (ev):

   -44.1519 -44.1519 -22.2835 -22.2835 -22.2617 -22.2617 -22.0670 -22.0670
    -6.6844  -6.6643  -5.7784  -5.7699  -5.6674  -5.6546  -5.5441  -5.5417
    -4.5798  -4.5614   0.0743   0.1217   0.4241   0.4633   1.0053   1.0321
     1.4797   1.6575   2.2326   2.3120   2.3355   2.3564   2.7984   2.8175
     2.9086   2.9143   3.2165   3.2986   3.3041   3.4896   3.5651   3.6615
     3.8057   3.9480   6.3532   6.3977   6.4405   6.5450   6.9494   6.9911
     6.9982   7.0125

          k = 1.0162 0.0000 0.1485 ( 36485 PWs)   bands (ev):

   -44.1519 -44.1519 -22.2835 -22.2835 -22.2617 -22.2617 -22.0670 -22.0670
    -6.6808  -6.6666  -5.7835  -5.7760  -5.6807  -5.6750  -5.5180  -5.5144
    -4.5830  -4.5700  -0.0065   0.0089   0.6488   0.6587   1.0443   1.0495
     1.4727   1.5711   1.9341   1.9665   2.3522   2.3663   2.6925   2.8315
     2.9724   3.0333   3.1086   3.2274   3.5276   3.6357   3.6620   3.6937
     4.0945   4.1442   5.8347   5.8798   6.3764   6.4587   6.9066   6.9265
     7.2322   7.2352

          k = 1.0162 0.0000-0.2971 ( 36514 PWs)   bands (ev):

   -44.1519 -44.1519 -22.2835 -22.2835 -22.2617 -22.2617 -22.0670 -22.0670
    -6.6731  -6.6731  -5.7858  -5.7858  -5.6890  -5.6890  -5.4946  -5.4946
    -4.5825  -4.5825  -0.0582  -0.0582   0.9001   0.9001   1.0533   1.0533
     1.5253   1.5253   1.5975   1.5975   2.3466   2.3466   2.7593   2.7593
     3.0378   3.0378   3.1424   3.1424   3.6032   3.6032   3.7554   3.7554
     4.6052   4.6052   5.2682   5.2682   6.3475   6.3475   6.9343   6.9343
     7.2895   7.2895

          k = 1.2703 0.0645 0.0000 ( 36468 PWs)   bands (ev):

   -44.1523 -44.1523 -22.2857 -22.2857 -22.2516 -22.2516 -22.0683 -22.0683
    -6.8086  -6.7254  -6.3602  -6.1364  -5.9624  -5.2978  -5.2742  -5.0565
    -4.6456  -4.5915   0.0200   0.2483   0.6013   1.1147   1.1864   1.1976
     1.5033   1.7085   1.9264   1.9967   2.4135   2.4442   2.5507   2.7869
     2.8149   3.0906   3.2680   3.4451   3.5469   3.5503   3.7886   3.8372
     3.9205   4.4381   5.7603   6.1603   6.3208   6.5829   6.7659   6.9383
     7.1249   7.5650

          k = 1.2703 0.0645 0.1485 ( 36490 PWs)   bands (ev):

   -44.1523 -44.1523 -22.2857 -22.2857 -22.2516 -22.2516 -22.0683 -22.0683
    -6.7942  -6.7345  -6.3533  -6.2314  -5.8210  -5.4176  -5.2030  -5.0786
    -4.6321  -4.5952   0.0837   0.3691   0.5122   0.9189   1.1584   1.1921
     1.5975   1.6482   1.6751   2.2659   2.3148   2.6298   2.6914   2.8425
     2.8830   3.1008   3.2179   3.3624   3.4265   3.5832   3.7174   3.8250
     3.8482   4.7404   5.3207   6.2865   6.4905   6.6036   6.7252   6.9571
     7.0115   7.3996

          k = 1.2703 0.0645-0.2971 ( 36480 PWs)   bands (ev):

   -44.1523 -44.1523 -22.2857 -22.2857 -22.2516 -22.2516 -22.0683 -22.0683
    -6.7617  -6.7617  -6.3186  -6.3186  -5.6080  -5.6080  -5.1342  -5.1342
    -4.6091  -4.6091   0.2676   0.2676   0.7086   0.7086   1.0224   1.0224
     1.5839   1.5839   2.0683   2.0683   2.5004   2.5004   2.8340   2.8340
     2.9889   2.9889   3.2337   3.2337   3.5811   3.5811   3.7728   3.7728
     4.1413   4.1413   5.9213   5.9213   6.3582   6.3582   6.9374   6.9374
     7.2137   7.2137

          k =-0.5081-0.3869 0.0000 ( 36463 PWs)   bands (ev):

   -44.1532 -44.1532 -22.2906 -22.2906 -22.2275 -22.2275 -22.0713 -22.0713
    -7.1888  -6.8793  -6.6331  -6.5731  -6.3367  -5.2220  -5.1389  -4.7689
    -4.6917  -4.4188   0.5238   0.7075   0.7223   1.3254   1.4132   1.5930
     1.6409   1.8288   1.9223   2.2267   2.2686   2.3060   2.4141   3.2115
     3.3247   3.3562   3.3675   3.4834   3.7009   3.7700   3.8860   4.0656
     4.6203   5.3019   5.3517   5.6990   6.0353   6.6689   6.7492   6.7864
     7.2179   7.5629

          k =-0.5081-0.3869 0.1485 ( 36477 PWs)   bands (ev):

   -44.1533 -44.1532 -22.2906 -22.2906 -22.2275 -22.2275 -22.0713 -22.0713
    -7.1556  -6.9403  -6.6399  -6.6263  -6.1600  -5.5037  -4.9542  -4.7319
    -4.6908  -4.4458   0.5242   0.7548   0.8593   1.0782   1.4042   1.4366
     1.5840   1.6889   2.0613   2.0727   2.3146   2.6587   2.8759   3.1823
     3.3248   3.3502   3.3891   3.4923   3.6387   3.7132   3.7735   4.1046
     4.2950   4.5854   5.9380   6.0681   6.2064   6.5730   6.7671   6.8057
     7.0786   7.4780

          k =-0.5081-0.3869-0.2971 ( 36492 PWs)   bands (ev):

   -44.1532 -44.1532 -22.2906 -22.2906 -22.2275 -22.2275 -22.0713 -22.0713
    -7.0621  -7.0621  -6.6459  -6.6459  -5.8465  -5.8465  -4.8267  -4.8267
    -4.5415  -4.5415   0.6374   0.6374   1.0917   1.0917   1.2129   1.2129
     1.5511   1.5511   2.0525   2.0525   2.8297   2.8297   3.2045   3.2045
     3.2800   3.2800   3.3664   3.3664   3.6738   3.6738   3.8148   3.8148
     4.1775   4.1775   6.1705   6.1705   6.6342   6.6342   6.7535   6.7535
     7.0977   7.0977

          k =-0.2541-0.3224 0.0000 ( 36485 PWs)   bands (ev):

   -44.1542 -44.1542 -22.2953 -22.2953 -22.2034 -22.2034 -22.0744 -22.0743
    -7.5109  -7.0615  -6.8663  -6.7620  -6.5472  -5.2803  -5.1251  -4.8789
    -4.7918  -4.0044   0.5951   0.9373   1.0175   1.2487   1.3847   1.4886
     1.9917   2.1648   2.2254   2.4066   2.5180   3.1940   3.2561   3.3627
     3.5458   3.6833   3.7492   3.8294   3.9345   4.0674   4.1438   4.1867
     4.3959   4.6222   5.8107   6.0266   6.3725   6.5400   6.6890   6.8800
     6.9430   7.0072

          k =-0.2541-0.3224 0.1485 ( 36445 PWs)   bands (ev):

   -44.1542 -44.1542 -22.2953 -22.2953 -22.2034 -22.2034 -22.0744 -22.0743
    -7.4728  -7.1927  -6.8218  -6.7688  -6.3902  -5.6363  -4.9448  -4.8155
    -4.6928  -4.0949   0.6111   0.9578   1.0567   1.1298   1.2353   1.6492
     1.8770   2.3076   2.4236   2.5013   2.5798   2.8996   3.2797   3.3340
     3.3535   3.5155   3.7524   3.8809   3.9222   4.0647   4.0954   4.1545
     4.6846   4.9942   5.7693   5.8557   6.1791   6.3136   6.6627   6.7225
     7.1645   7.2719

          k =-0.2541-0.3224-0.2971 ( 36442 PWs)   bands (ev):

   -44.1542 -44.1542 -22.2953 -22.2953 -22.2034 -22.2034 -22.0743 -22.0743
    -7.3615  -7.3615  -6.7894  -6.7894  -6.0466  -6.0466  -4.8731  -4.8731
    -4.3457  -4.3457   0.7331   0.7331   1.1573   1.1573   1.3188   1.3188
     2.2820   2.2820   2.5097   2.5097   2.7239   2.7239   3.1776   3.1776
     3.3370   3.3370   3.7925   3.7925   4.0091   4.0091   4.1402   4.1402
     5.1832   5.1832   5.6585   5.6585   6.0382   6.0382   6.6672   6.6672
     7.3770   7.3770

          k = 0.0000-0.2579 0.0000 ( 36445 PWs)   bands (ev):

   -44.1546 -44.1546 -22.2973 -22.2972 -22.1934 -22.1934 -22.0756 -22.0756
    -7.6316  -7.1477  -6.9694  -6.8011  -6.5999  -5.3155  -5.1332  -4.9202
    -4.8347  -3.8669   0.5217   0.7963   0.8387   1.1019   1.5679   1.6316
     2.4288   2.4931   2.6403   3.0253   3.0418   3.0913   3.2336   3.2585
     3.2666   3.5644   3.7286   3.9866   4.0932   4.1038   4.1438   4.6286
     5.1219   5.4426   5.6359   5.6598   5.9001   6.1493   6.5510   6.6830
     6.9378   7.2413

          k = 0.0000-0.2579 0.1485 ( 36452 PWs)   bands (ev):

   -44.1546 -44.1546 -22.2973 -22.2972 -22.1934 -22.1934 -22.0756 -22.0756
    -7.5925  -7.2998  -6.8828  -6.8082  -6.4617  -5.6929  -4.9600  -4.8548
    -4.6952  -3.9813   0.5482   0.8682   0.9817   1.0811   1.1099   2.0617
     2.1673   2.4542   2.6025   3.0278   3.0664   3.1056   3.1819   3.2062
     3.6386   3.6719   3.6738   3.9259   4.0510   4.1373   4.1725   4.6456
     4.9200   5.0275   5.7461   5.9279   6.0770   6.0981   6.5426   6.7739
     6.8113   7.2261

          k = 0.0000-0.2579-0.2971 ( 36454 PWs)   bands (ev):

   -44.1546 -44.1546 -22.2973 -22.2973 -22.1934 -22.1934 -22.0756 -22.0756
    -7.4776  -7.4776  -6.8321  -6.8321  -6.1197  -6.1197  -4.9031  -4.9031
    -4.2865  -4.2865   0.7337   0.7337   0.9581   0.9581   1.4835   1.4835
     2.5222   2.5222   2.7268   2.7268   3.0388   3.0388   3.1764   3.1764
     3.7687   3.7687   3.8853   3.8853   4.0950   4.0950   4.4278   4.4278
     4.7227   4.7227   5.9209   5.9209   6.3058   6.3058   6.3849   6.3849
     7.1573   7.1573

          k = 1.5243 0.0000 0.0000 ( 36439 PWs)   bands (ev):

   -44.1532 -44.1532 -22.2906 -22.2906 -22.2275 -22.2275 -22.0713 -22.0713
    -7.1813  -6.8783  -6.6397  -6.5719  -6.3422  -5.2211  -5.1426  -4.7699
    -4.6895  -4.4192   0.5281   0.7017   0.7163   1.3290   1.5442   1.5549
     1.6213   1.8276   1.9237   2.2528   2.2607   2.2992   2.4277   3.1590
     3.2998   3.3382   3.3811   3.5570   3.6635   3.6892   3.8804   4.0796
     4.6153   5.2895   5.3484   5.6689   6.0619   6.6327   6.8143   6.8251
     7.1715   7.5626

          k = 1.5243 0.0000 0.1485 ( 36476 PWs)   bands (ev):

   -44.1532 -44.1532 -22.2906 -22.2906 -22.2275 -22.2275 -22.0713 -22.0713
    -7.1482  -6.9357  -6.6457  -6.6340  -6.1610  -5.5028  -4.9595  -4.7319
    -4.6892  -4.4450   0.5273   0.7544   0.8537   1.0768   1.4252   1.4980
     1.5621   1.7055   2.0731   2.0752   2.3055   2.6717   2.8887   3.1298
     3.2824   3.3641   3.3763   3.5774   3.5895   3.7016   3.7319   4.1158
     4.2544   4.5842   5.9119   6.0753   6.2057   6.5446   6.8123   6.8679
     7.0302   7.4891

          k = 1.5243 0.0000-0.2971 ( 36508 PWs)   bands (ev):

   -44.1533 -44.1533 -22.2906 -22.2906 -22.2275 -22.2275 -22.0713 -22.0713
    -7.0552  -7.0552  -6.6543  -6.6543  -5.8456  -5.8456  -4.8306  -4.8306
    -4.5392  -4.5392   0.6411   0.6411   1.0901   1.0901   1.2079   1.2079
     1.5971   1.5971   2.0470   2.0470   2.8416   2.8416   3.1610   3.1610
     3.2976   3.2976   3.3715   3.3715   3.6552   3.6552   3.8113   3.8113
     4.1514   4.1514   6.1552   6.1552   6.6289   6.6289   6.7713   6.7713
     7.1067   7.1067

          k =-0.2541-0.4514 0.0000 ( 36444 PWs)   bands (ev):

   -44.1542 -44.1542 -22.2953 -22.2953 -22.2034 -22.2034 -22.0744 -22.0743
    -7.4985  -7.0519  -6.8642  -6.7739  -6.5669  -5.2790  -5.1329  -4.8804
    -4.7877  -4.0055   0.6033   0.9481   1.1290   1.2870   1.4741   1.4852
     2.0303   2.1902   2.2152   2.3127   2.4405   3.1524   3.2377   3.3012
     3.5478   3.6776   3.7419   3.7591   3.9378   4.0187   4.1122   4.1605
     4.4550   4.5381   5.8753   6.0339   6.3906   6.5004   6.7420   6.8738
     6.9013   6.9975

          k =-0.2541-0.4514 0.1485 ( 36461 PWs)   bands (ev):

   -44.1542 -44.1542 -22.2953 -22.2953 -22.2034 -22.2034 -22.0744 -22.0743
    -7.4603  -7.1805  -6.8328  -6.7825  -6.3973  -5.6350  -4.9583  -4.8144
    -4.6871  -4.0946   0.6158   0.9749   1.0691   1.2652   1.3148   1.6704
     1.8923   2.2822   2.3282   2.4695   2.5910   2.8868   3.2232   3.2369
     3.3696   3.5211   3.7794   3.8347   3.8970   3.9992   4.0821   4.1172
     4.7033   4.9614   5.7608   5.8754   6.1892   6.2658   6.7303   6.7483
     7.1333   7.2649

          k =-0.2541-0.4514-0.2971 ( 36490 PWs)   bands (ev):

   -44.1542 -44.1542 -22.2953 -22.2953 -22.2034 -22.2034 -22.0743 -22.0743
    -7.3490  -7.3490  -6.8046  -6.8046  -6.0468  -6.0468  -4.8793  -4.8793
    -4.3427  -4.3427   0.7344   0.7344   1.2764   1.2764   1.3377   1.3377
     2.2601   2.2601   2.4473   2.4473   2.7293   2.7293   3.1974   3.1974
     3.2473   3.2473   3.7878   3.7878   4.0014   4.0014   4.0910   4.0910
     5.1831   5.1831   5.6343   5.6343   6.0124   6.0124   6.7320   6.7320
     7.3547   7.3547

          k = 0.0000-0.3869 0.0000 ( 36477 PWs)   bands (ev):

   -44.1546 -44.1546 -22.2973 -22.2972 -22.1934 -22.1934 -22.0756 -22.0756
    -7.6162  -7.1320  -6.9667  -6.8176  -6.6284  -5.3143  -5.1437  -4.9233
    -4.8284  -3.8685   0.5454   0.8110   0.9980   1.1674   1.6332   1.6541
     2.4379   2.4838   2.6594   2.9683   3.0128   3.0305   3.0868   3.0935
     3.3725   3.5377   3.7530   3.9115   3.9706   4.0087   4.1034   4.6319
     5.1038   5.4049   5.6534   5.7372   5.9355   6.1851   6.5798   6.6215
     6.9393   7.2104

          k = 0.0000-0.3869 0.1485 ( 36452 PWs)   bands (ev):

   -44.1546 -44.1546 -22.2973 -22.2972 -22.1934 -22.1934 -22.0756 -22.0756
    -7.5770  -7.2838  -6.8944  -6.8261  -6.4744  -5.6917  -4.9786  -4.8526
    -4.6878  -3.9812   0.5611   0.9824   1.0311   1.1344   1.1994   2.0879
     2.1954   2.4642   2.6194   2.8991   2.9346   3.0159   3.0589   3.2888
     3.6161   3.6504   3.6753   3.9083   4.0066   4.0467   4.0591   4.6488
     4.9133   5.0184   5.7822   5.9362   6.0887   6.0986   6.5001   6.7761
     6.8585   7.1903

          k = 0.0000-0.3869-0.2971 ( 36454 PWs)   bands (ev):

   -44.1546 -44.1546 -22.2973 -22.2973 -22.1934 -22.1934 -22.0756 -22.0756
    -7.4620  -7.4620  -6.8509  -6.8509  -6.1212  -6.1212  -4.9110  -4.9110
    -4.2830  -4.2830   0.7366   0.7366   1.1074   1.1074   1.5095   1.5095
     2.5350   2.5350   2.6903   2.6903   3.0145   3.0145   3.0286   3.0286
     3.7812   3.7812   3.8722   3.8722   3.9864   3.9864   4.4147   4.4147
     4.7238   4.7238   5.8897   5.8897   6.3301   6.3301   6.3890   6.3890
     7.1317   7.1317

          k =-2.0325 0.0000 0.0000 ( 36452 PWs)   bands (ev):

   -44.1546 -44.1546 -22.2973 -22.2972 -22.1934 -22.1934 -22.0756 -22.0756
    -7.6095  -7.1255  -6.9656  -6.8235  -6.6414  -5.3138  -5.1481  -4.9238
    -4.8265  -3.8692   0.5492   0.8173   1.1069   1.1708   1.6630   1.6745
     2.4418   2.4744   2.6677   2.8231   2.9341   3.0073   3.0849   3.1221
     3.4676   3.5264   3.7781   3.7984   3.9473   3.9590   4.1033   4.6334
     5.0965   5.3941   5.6606   5.7737   5.9519   6.1957   6.5293   6.6446
     6.9398   7.1991

          k =-2.0325 0.0000 0.1485 ( 36456 PWs)   bands (ev):

   -44.1546 -44.1546 -22.2973 -22.2972 -22.1934 -22.1934 -22.0756 -22.0756
    -7.5703  -7.2769  -6.8999  -6.8333  -6.4797  -5.6913  -4.9858  -4.8521
    -4.6848  -3.9812   0.5615   1.0237   1.0421   1.1742   1.2658   2.0992
     2.2059   2.4685   2.6267   2.7724   2.8295   3.0107   3.0557   3.3497
     3.5954   3.6415   3.7001   3.8805   3.9565   4.0170   4.0448   4.6502
     4.9105   5.0167   5.8013   5.9398   6.0760   6.1072   6.4814   6.7770
     6.8718   7.1768

          k =-2.0325 0.0000-0.2971 ( 36460 PWs)   bands (ev):

   -44.1546 -44.1546 -22.2973 -22.2973 -22.1934 -22.1934 -22.0756 -22.0756
    -7.4552  -7.4552  -6.8590  -6.8590  -6.1218  -6.1218  -4.9142  -4.9142
    -4.2816  -4.2816   0.7343   0.7343   1.1866   1.1866   1.5219   1.5219
     2.5405   2.5405   2.6270   2.6270   2.9786   2.9786   3.0242   3.0242
     3.7862   3.7862   3.8667   3.8667   3.9489   3.9489   4.4097   4.4097
     4.7242   4.7242   5.8755   5.8755   6.3374   6.3374   6.3908   6.3908
     7.1190   7.1190

     the Fermi energy is     5.3086 ev

!    total energy              =   -4240.93811419 Ry

     total all-electron energy =   -150287.631809 Ry
     estimated scf accuracy    <          4.4E-11 Ry
     smearing contrib. (-TS)   =       0.00000157 Ry
     internal energy E=F+TS    =   -4240.93811577 Ry

     The total energy is F=E-TS. E is the sum of the following terms:
     one-electron contribution =    -165.00756730 Ry
     hartree contribution      =     115.97252380 Ry
     xc contribution           =    -201.41851759 Ry
     ewald contribution        =    -222.97507415 Ry
     one-center paw contrib.   =   -3767.50948053 Ry

     convergence has been achieved in  17 iterations

     Forces acting on atoms (cartesian axes, Ry/au):

     atom    1 type  1   force =     0.00000000   -0.01982924    0.00000000
     atom    2 type  1   force =     0.00000000    0.01982924    0.00000000
     atom    3 type  2   force =     0.00000000    0.00157547    0.00000000
     atom    4 type  2   force =     0.00000000   -0.00157547    0.00000000
     atom    5 type  2   force =     0.00000000    0.00431686    0.00021626
     atom    6 type  2   force =     0.00000000   -0.00431686   -0.00021626
     atom    7 type  2   force =     0.00000000    0.00431686   -0.00021626
     atom    8 type  2   force =    -0.00000000   -0.00431686    0.00021626
     atom    9 type  2   force =     0.00000000    0.01857918    0.01499612
     atom   10 type  2   force =     0.00000000   -0.01857918   -0.01499612
     atom   11 type  2   force =     0.00000000    0.01857918   -0.01499612
     atom   12 type  2   force =     0.00000000   -0.01857918    0.01499612

     Total force =     0.056092     Total SCF correction =     0.000011


     Computing stress (Cartesian axis) and pressure

          total   stress  (Ry/bohr**3)                   (kbar)     P=       -4.57
  -0.00001880   0.00000000   0.00000000           -2.77        0.00        0.00
   0.00000000  -0.00002953   0.00000000            0.00       -4.34        0.00
   0.00000000   0.00000000  -0.00004480            0.00        0.00       -6.59

 
     init_run     :     36.52s CPU     37.34s WALL (       1 calls)
     electrons    :   1779.79s CPU   1798.61s WALL (       1 calls)
     forces       :      7.63s CPU      7.89s WALL (       1 calls)
     stress       :     46.62s CPU     47.30s WALL (       1 calls)

     Called by init_run:
     wfcinit      :     31.59s CPU     31.90s WALL (       1 calls)
     potinit      :      1.46s CPU      1.51s WALL (       1 calls)
     hinit0       :      1.74s CPU      1.91s WALL (       1 calls)

     Called by electrons:
     c_bands      :   1465.64s CPU   1474.49s WALL (      18 calls)
     sum_band     :    281.36s CPU    287.19s WALL (      18 calls)
     v_of_rho     :      8.28s CPU      8.87s WALL (      18 calls)
     newd         :     17.52s CPU     21.26s WALL (      18 calls)
     PAW_pot      :      6.54s CPU      6.55s WALL (      18 calls)
     mix_rho      :      1.53s CPU      1.58s WALL (      18 calls)

     Called by c_bands:
     init_us_2    :     13.84s CPU     13.89s WALL (    2457 calls)
     cegterg      :   1389.59s CPU   1397.76s WALL (    1134 calls)

     Called by *egterg:
     cdiaghg      :     29.01s CPU     29.14s WALL (    8263 calls)
     h_psi        :   1200.71s CPU   1208.59s WALL (    8389 calls)
     s_psi        :     52.87s CPU     52.98s WALL (    8389 calls)
     g_psi        :      2.40s CPU      2.42s WALL (    7192 calls)

     Called by h_psi:
     h_psi:calbec :     45.11s CPU     45.22s WALL (    8389 calls)
     vloc_psi     :   1098.81s CPU   1106.42s WALL (    8389 calls)
     add_vuspsi   :     52.59s CPU     52.67s WALL (    8389 calls)

     General routines
     calbec       :     58.82s CPU     58.97s WALL (    9838 calls)
     fft          :      7.72s CPU      8.08s WALL (     258 calls)
     ffts         :      0.19s CPU      0.19s WALL (      36 calls)
     fftw         :   1080.65s CPU   1087.88s WALL (  436858 calls)
     interpolate  :      0.64s CPU      0.64s WALL (      18 calls)
 
     Parallel routines
     fft_scatt_xy :    291.96s CPU    293.87s WALL (  437152 calls)
     fft_scatt_yz :    205.93s CPU    207.76s WALL (  437152 calls)
 
     PWSCF        :  31m10.84s CPU  31m34.81s WALL

 
   This run was terminated on:  15:18: 2  19Nov2021            

=------------------------------------------------------------------------------=
   JOB DONE.
=------------------------------------------------------------------------------=
