
     Program PWSCF v.6.7MaX starts on 19Nov2021 at 14:53:50 

     This program is part of the open-source Quantum ESPRESSO suite
     for quantum simulation of materials; please cite
         "P. Giannozzi et al., J. Phys.:Condens. Matter 21 395502 (2009);
         "P. Giannozzi et al., J. Phys.:Condens. Matter 29 465901 (2017);
          URL http://www.quantum-espresso.org", 
     in publications or presentations arising from this work. More details at
     http://www.quantum-espresso.org/quote

     Parallel version (MPI), running on    10 processors

     MPI processes distributed on     1 nodes
     R & G space division:  proc/nbgrp/npool/nimage =      10
     Waiting for input...
     Reading input from standard input

     Current dimensions of program PWSCF are:
     Max number of different atomic species (ntypx) = 10
     Max number of k-points (npk) =  40000
     Max angular momentum in pseudopotentials (lmaxx) =  3
     file Zr.pbe-spn-kjpaw_psl.1.0.0.UPF: wavefunction(s)  4S 4P renormalized
     file Te.pbe-n-kjpaw_psl.1.0.0.UPF: wavefunction(s)  5S 5P renormalized

     Subspace diagonalization in iterative solution of the eigenvalue problem:
     a serial algorithm will be used

     Message from routine setup:
     using ibrav=0 with symmetry is DISCOURAGED, use correct ibrav instead
 
     Parallelization info
     --------------------
     sticks:   dense  smooth     PW     G-vecs:    dense   smooth      PW
     Min         734     293     87               115340    29174    4753
     Max         735     295     88               115345    29176    4760
     Sum        7345    2937    873              1153415   291749   47557
 


     bravais-lattice index     =            0
     lattice parameter (alat)  =      15.5510  a.u.
     unit-cell volume          =    3018.5011 (a.u.)^3
     number of atoms/cell      =           12
     number of atomic types    =            2
     number of electrons       =        84.00
     number of Kohn-Sham states=           50
     kinetic-energy cutoff     =      80.0000  Ry
     charge density cutoff     =     800.0000  Ry
     scf convergence threshold =      1.0E-10
     mixing beta               =       0.7000
     number of iterations used =            8  plain     mixing
     Exchange-correlation= SLA  PW   PBX  PBC
                           (   1   4   3   4   0   0   0)

     celldm(1)=  15.551040  celldm(2)=   0.000000  celldm(3)=   0.000000
     celldm(4)=   0.000000  celldm(5)=   0.000000  celldm(6)=   0.000000

     crystal axes: (cart. coord. in units of alat)
               a(1) = (   0.246007  -0.969268   0.000000 )  
               a(2) = (   0.246007   0.969268   0.000000 )  
               a(3) = (   0.000000   0.000000   1.683031 )  

     reciprocal axes: (cart. coord. in units 2 pi/alat)
               b(1) = (  2.032465 -0.515853  0.000000 )  
               b(2) = (  2.032465  0.515853  0.000000 )  
               b(3) = (  0.000000  0.000000  0.594166 )  


     PseudoPot. # 1 for Zr read from file:
     pseudo/Zr.pbe-spn-kjpaw_psl.1.0.0.UPF
     MD5 check sum: 02112c41713a0468aff2bb39ef194e36
     Pseudo is Projector augmented-wave + core cor, Zval = 12.0
     Generated using &quot;atomic&quot; code by A. Dal Corso  v.6.2.2
     Shape of augmentation charge: PSQ
     Using radial grid of 1225 points,  6 beta functions with: 
                l(1) =   0
                l(2) =   0
                l(3) =   1
                l(4) =   1
                l(5) =   2
                l(6) =   2
     Q(r) pseudized with 0 coefficients 


     PseudoPot. # 2 for Te read from file:
     pseudo/Te.pbe-n-kjpaw_psl.1.0.0.UPF
     MD5 check sum: 66247bff2bd9dbf220fbb0bf5ab56e9d
     Pseudo is Projector augmented-wave + core cor, Zval =  6.0
     Generated using &quot;atomic&quot; code by A. Dal Corso  v.6.3
     Shape of augmentation charge: PSQ
     Using radial grid of 1245 points,  6 beta functions with: 
                l(1) =   0
                l(2) =   0
                l(3) =   1
                l(4) =   1
                l(5) =   2
                l(6) =   2
     Q(r) pseudized with 0 coefficients 


     atomic species   valence    mass     pseudopotential
        Zr            12.00    91.22000     Zr( 1.00)
        Te             6.00   127.60000     Te( 1.00)

      8 Sym. Ops., with inversion, found ( 4 have fractional translation)



   Cartesian axes

     site n.     atom                  positions (alat units)
         1           Zr  tau(   1) = (   0.0000000   0.6132275   0.4207578  )
         2           Zr  tau(   2) = (   0.2460067   0.3560406   1.2622733  )
         3           Te  tau(   3) = (   0.2460067   0.3344015   0.4207578  )
         4           Te  tau(   4) = (   0.0000000   0.6348666   1.2622733  )
         5           Te  tau(   5) = (   0.2460067   0.8063571   0.2496957  )
         6           Te  tau(   6) = (   0.0000000   0.1629110   1.4333354  )
         7           Te  tau(   7) = (   0.2460067   0.8063571   0.5918199  )
         8           Te  tau(   8) = (   0.0000000   0.1629110   1.0912112  )
         9           Te  tau(   9) = (   0.0000000   0.4015428   0.7181464  )
        10           Te  tau(  10) = (   0.2460067   0.5677253   0.9648846  )
        11           Te  tau(  11) = (   0.0000000   0.4015428   0.1233691  )
        12           Te  tau(  12) = (   0.2460067   0.5677253   1.5596620  )

     number of k points=    63  Methfessel-Paxton smearing, width (Ry)=  0.0030
                       cart. coord. in units 2pi/alat
        k(    1) = (   0.0000000   0.0000000   0.0000000), wk =   0.0078125
        k(    2) = (   0.0000000   0.0000000   0.1485415), wk =   0.0156250
        k(    3) = (   0.0000000   0.0000000  -0.2970830), wk =   0.0078125
        k(    4) = (   0.2540581   0.0644816   0.0000000), wk =   0.0312500
        k(    5) = (   0.2540581   0.0644816   0.1485415), wk =   0.0625000
        k(    6) = (   0.2540581   0.0644816  -0.2970830), wk =   0.0312500
        k(    7) = (   0.5081162   0.1289633   0.0000000), wk =   0.0312500
        k(    8) = (   0.5081162   0.1289633   0.1485415), wk =   0.0625000
        k(    9) = (   0.5081162   0.1289633  -0.2970830), wk =   0.0312500
        k(   10) = (   0.7621743   0.1934449   0.0000000), wk =   0.0312500
        k(   11) = (   0.7621743   0.1934449   0.1485415), wk =   0.0625000
        k(   12) = (   0.7621743   0.1934449  -0.2970830), wk =   0.0312500
        k(   13) = (  -1.0162324  -0.2579266   0.0000000), wk =   0.0156250
        k(   14) = (  -1.0162324  -0.2579266   0.1485415), wk =   0.0312500
        k(   15) = (  -1.0162324  -0.2579266  -0.2970830), wk =   0.0156250
        k(   16) = (   0.5081162   0.0000000   0.0000000), wk =   0.0156250
        k(   17) = (   0.5081162   0.0000000   0.1485415), wk =   0.0312500
        k(   18) = (   0.5081162   0.0000000  -0.2970830), wk =   0.0156250
        k(   19) = (   0.7621743   0.0644816   0.0000000), wk =   0.0312500
        k(   20) = (   0.7621743   0.0644816   0.1485415), wk =   0.0625000
        k(   21) = (   0.7621743   0.0644816  -0.2970830), wk =   0.0312500
        k(   22) = (   1.0162324   0.1289633   0.0000000), wk =   0.0312500
        k(   23) = (   1.0162324   0.1289633   0.1485415), wk =   0.0625000
        k(   24) = (   1.0162324   0.1289633  -0.2970830), wk =   0.0312500
        k(   25) = (  -0.7621743  -0.3224082   0.0000000), wk =   0.0312500
        k(   26) = (  -0.7621743  -0.3224082   0.1485415), wk =   0.0625000
        k(   27) = (  -0.7621743  -0.3224082  -0.2970830), wk =   0.0312500
        k(   28) = (  -0.5081162  -0.2579266   0.0000000), wk =   0.0312500
        k(   29) = (  -0.5081162  -0.2579266   0.1485415), wk =   0.0625000
        k(   30) = (  -0.5081162  -0.2579266  -0.2970830), wk =   0.0312500
        k(   31) = (  -0.2540581  -0.1934449   0.0000000), wk =   0.0312500
        k(   32) = (  -0.2540581  -0.1934449   0.1485415), wk =   0.0625000
        k(   33) = (  -0.2540581  -0.1934449  -0.2970830), wk =   0.0312500
        k(   34) = (   0.0000000  -0.1289633   0.0000000), wk =   0.0156250
        k(   35) = (   0.0000000  -0.1289633   0.1485415), wk =   0.0312500
        k(   36) = (   0.0000000  -0.1289633  -0.2970830), wk =   0.0156250
        k(   37) = (   1.0162324   0.0000000   0.0000000), wk =   0.0156250
        k(   38) = (   1.0162324   0.0000000   0.1485415), wk =   0.0312500
        k(   39) = (   1.0162324   0.0000000  -0.2970830), wk =   0.0156250
        k(   40) = (   1.2702905   0.0644816   0.0000000), wk =   0.0312500
        k(   41) = (   1.2702905   0.0644816   0.1485415), wk =   0.0625000
        k(   42) = (   1.2702905   0.0644816  -0.2970830), wk =   0.0312500
        k(   43) = (  -0.5081162  -0.3868899   0.0000000), wk =   0.0312500
        k(   44) = (  -0.5081162  -0.3868899   0.1485415), wk =   0.0625000
        k(   45) = (  -0.5081162  -0.3868899  -0.2970830), wk =   0.0312500
        k(   46) = (  -0.2540581  -0.3224082   0.0000000), wk =   0.0312500
        k(   47) = (  -0.2540581  -0.3224082   0.1485415), wk =   0.0625000
        k(   48) = (  -0.2540581  -0.3224082  -0.2970830), wk =   0.0312500
        k(   49) = (   0.0000000  -0.2579266   0.0000000), wk =   0.0156250
        k(   50) = (   0.0000000  -0.2579266   0.1485415), wk =   0.0312500
        k(   51) = (   0.0000000  -0.2579266  -0.2970830), wk =   0.0156250
        k(   52) = (   1.5243485   0.0000000   0.0000000), wk =   0.0156250
        k(   53) = (   1.5243485   0.0000000   0.1485415), wk =   0.0312500
        k(   54) = (   1.5243485   0.0000000  -0.2970830), wk =   0.0156250
        k(   55) = (  -0.2540581  -0.4513715   0.0000000), wk =   0.0312500
        k(   56) = (  -0.2540581  -0.4513715   0.1485415), wk =   0.0625000
        k(   57) = (  -0.2540581  -0.4513715  -0.2970830), wk =   0.0312500
        k(   58) = (   0.0000000  -0.3868899   0.0000000), wk =   0.0156250
        k(   59) = (   0.0000000  -0.3868899   0.1485415), wk =   0.0312500
        k(   60) = (   0.0000000  -0.3868899  -0.2970830), wk =   0.0156250
        k(   61) = (  -2.0324647   0.0000000   0.0000000), wk =   0.0078125
        k(   62) = (  -2.0324647   0.0000000   0.1485415), wk =   0.0156250
        k(   63) = (  -2.0324647   0.0000000  -0.2970830), wk =   0.0078125

     Dense  grid:  1153415 G-vectors     FFT dimensions: ( 144, 144, 240)

     Smooth grid:   291749 G-vectors     FFT dimensions: (  90,  90, 150)

     Estimated max dynamical RAM per process >     657.19 MB

     Estimated total dynamical RAM >       6.42 GB

     Initial potential from superposition of free atoms

     starting charge   83.99353, renormalised to   84.00000
     Starting wfcs are   66 randomized atomic wfcs
     Checking if some PAW data can be deallocated... 

     total cpu time spent up to now is       37.7 secs

     Self-consistent Calculation

     iteration #  1     ecut=    80.00 Ry     beta= 0.70
     Davidson diagonalization with overlap
     ethr =  1.00E-02,  avg # of iterations =  2.0

     Threshold (ethr) on eigenvalues was too large:
     Diagonalizing with lowered threshold

     Davidson diagonalization with overlap
     ethr =  3.68E-04,  avg # of iterations =  4.1

     total cpu time spent up to now is      198.7 secs

     total energy              =   -4240.70903832 Ry
     estimated scf accuracy    <       0.42416829 Ry

     iteration #  2     ecut=    80.00 Ry     beta= 0.70
     Davidson diagonalization with overlap
     ethr =  5.05E-04,  avg # of iterations =  7.3

     total cpu time spent up to now is      309.0 secs

     total energy              =   -4240.61572784 Ry
     estimated scf accuracy    <       2.18390299 Ry

     iteration #  3     ecut=    80.00 Ry     beta= 0.70
     Davidson diagonalization with overlap
     ethr =  5.05E-04,  avg # of iterations =  5.1

     total cpu time spent up to now is      404.6 secs

     total energy              =   -4240.90619270 Ry
     estimated scf accuracy    <       0.02183577 Ry

     iteration #  4     ecut=    80.00 Ry     beta= 0.70
     Davidson diagonalization with overlap
     c_bands:  2 eigenvalues not converged
     c_bands:  1 eigenvalues not converged
     c_bands:  1 eigenvalues not converged
     c_bands:  1 eigenvalues not converged
     c_bands:  1 eigenvalues not converged
     c_bands:  1 eigenvalues not converged
     c_bands:  1 eigenvalues not converged
     c_bands:  1 eigenvalues not converged
     ethr =  2.60E-05,  avg # of iterations = 15.2

     total cpu time spent up to now is      564.1 secs

     total energy              =   -4240.92520318 Ry
     estimated scf accuracy    <       0.09629287 Ry

     iteration #  5     ecut=    80.00 Ry     beta= 0.70
     Davidson diagonalization with overlap
     ethr =  2.60E-05,  avg # of iterations =  4.8

     total cpu time spent up to now is      647.3 secs

     total energy              =   -4240.92718167 Ry
     estimated scf accuracy    <       0.02332441 Ry

     iteration #  6     ecut=    80.00 Ry     beta= 0.70
     Davidson diagonalization with overlap
     ethr =  2.60E-05,  avg # of iterations =  2.5

     total cpu time spent up to now is      720.8 secs

     total energy              =   -4240.92823327 Ry
     estimated scf accuracy    <       0.00332726 Ry

     iteration #  7     ecut=    80.00 Ry     beta= 0.70
     Davidson diagonalization with overlap
     c_bands:  1 eigenvalues not converged
     c_bands:  1 eigenvalues not converged
     c_bands:  1 eigenvalues not converged
     c_bands:  2 eigenvalues not converged
     ethr =  3.96E-06,  avg # of iterations = 12.5

     total cpu time spent up to now is      846.6 secs

     total energy              =   -4240.93008062 Ry
     estimated scf accuracy    <       0.00297616 Ry

     iteration #  8     ecut=    80.00 Ry     beta= 0.70
     Davidson diagonalization with overlap
     ethr =  3.54E-06,  avg # of iterations =  2.1

     total cpu time spent up to now is      915.4 secs

     total energy              =   -4240.93008237 Ry
     estimated scf accuracy    <       0.00066988 Ry

     iteration #  9     ecut=    80.00 Ry     beta= 0.70
     Davidson diagonalization with overlap
     c_bands:  1 eigenvalues not converged
     ethr =  7.97E-07,  avg # of iterations =  6.3

     total cpu time spent up to now is      999.5 secs

     total energy              =   -4240.93021882 Ry
     estimated scf accuracy    <       0.00000807 Ry

     iteration # 10     ecut=    80.00 Ry     beta= 0.70
     Davidson diagonalization with overlap
     c_bands:  1 eigenvalues not converged
     c_bands:  1 eigenvalues not converged
     c_bands:  1 eigenvalues not converged
     ethr =  9.61E-09,  avg # of iterations = 11.2

     total cpu time spent up to now is     1139.4 secs

     total energy              =   -4240.93024188 Ry
     estimated scf accuracy    <       0.00001795 Ry

     iteration # 11     ecut=    80.00 Ry     beta= 0.70
     Davidson diagonalization with overlap
     ethr =  9.61E-09,  avg # of iterations =  4.3

     total cpu time spent up to now is     1221.9 secs

     total energy              =   -4240.93024481 Ry
     estimated scf accuracy    <       0.00000003 Ry

     iteration # 12     ecut=    80.00 Ry     beta= 0.70
     Davidson diagonalization with overlap
     c_bands:  1 eigenvalues not converged
     c_bands:  1 eigenvalues not converged
     c_bands:  1 eigenvalues not converged
     ethr =  3.62E-11,  avg # of iterations = 13.0

     total cpu time spent up to now is     1397.8 secs

     total energy              =   -4240.93024488 Ry
     estimated scf accuracy    <       0.00000085 Ry

     iteration # 13     ecut=    80.00 Ry     beta= 0.70
     Davidson diagonalization with overlap
     ethr =  3.62E-11,  avg # of iterations =  6.8

     total cpu time spent up to now is     1513.0 secs

     total energy              =   -4240.93024500 Ry
     estimated scf accuracy    <          6.2E-10 Ry

     iteration # 14     ecut=    80.00 Ry     beta= 0.70
     Davidson diagonalization with overlap
     c_bands:  1 eigenvalues not converged
     ethr =  7.40E-13,  avg # of iterations =  8.3

     total cpu time spent up to now is     1635.5 secs

     total energy              =   -4240.93024500 Ry
     estimated scf accuracy    <          1.5E-09 Ry

     iteration # 15     ecut=    80.00 Ry     beta= 0.70
     Davidson diagonalization with overlap
     ethr =  7.40E-13,  avg # of iterations =  4.3

     total cpu time spent up to now is     1715.9 secs

     End of self-consistent calculation

          k = 0.0000 0.0000 0.0000 ( 36359 PWs)   bands (ev):

   -44.1610 -44.1610 -22.3078 -22.3078 -22.2009 -22.2009 -22.0814 -22.0813
    -7.6304  -7.1926  -6.8439  -6.7640  -6.6341  -5.2626  -5.1671  -4.9264
    -4.8686  -3.8671   0.4752   0.6532   0.7967   1.0382   1.4743   1.6284
     2.4078   2.5433   2.5723   2.9918   3.0511   3.0662   3.2115   3.4906
     3.5242   3.5428   3.8566   4.0373   4.0603   4.2724   4.3133   4.6187
     5.2588   5.5365   5.5503   5.5553   5.8690   6.0798   6.4526   6.7640
     6.9292   7.3140

          k = 0.0000 0.0000 0.1485 ( 36415 PWs)   bands (ev):

   -44.1610 -44.1610 -22.3078 -22.3078 -22.2009 -22.2009 -22.0813 -22.0813
    -7.5919  -7.3124  -6.8081  -6.7695  -6.4769  -5.6836  -4.9521  -4.8816
    -4.7072  -3.9825   0.5083   0.6914   0.9062   1.0620   1.0665   2.0679
     2.1319   2.4292   2.5455   3.0560   3.0728   3.1575   3.2880   3.3550
     3.6641   3.6754   3.8184   4.0173   4.0247   4.2918   4.3242   4.6409
     4.9791   5.0692   5.6831   5.9096   6.0685   6.1003   6.5697   6.7286
     6.7701   7.2978

          k = 0.0000 0.0000-0.2971 ( 36410 PWs)   bands (ev):

   -44.1610 -44.1610 -22.3078 -22.3078 -22.2009 -22.2009 -22.0813 -22.0813
    -7.4798  -7.4798  -6.7841  -6.7841  -6.1192  -6.1192  -4.9135  -4.9135
    -4.2907  -4.2907   0.6762   0.6762   0.8334   0.8334   1.4864   1.4864
     2.4846   2.4846   2.7069   2.7069   3.0989   3.0989   3.3162   3.3162
     3.8113   3.8113   3.8728   3.8728   4.3094   4.3094   4.4313   4.4313
     4.7390   4.7390   5.9570   5.9570   6.2646   6.2646   6.3829   6.3829
     7.1921   7.1921

          k = 0.2541 0.0645 0.0000 ( 36396 PWs)   bands (ev):

   -44.1606 -44.1606 -22.3058 -22.3058 -22.2110 -22.2110 -22.0801 -22.0800
    -7.5168  -7.1031  -6.7450  -6.7189  -6.5780  -5.2340  -5.1475  -4.8864
    -4.8277  -4.0022   0.5629   0.7906   0.9354   1.1554   1.2423   1.5294
     1.9501   2.1930   2.2018   2.5126   2.6004   2.9623   3.5313   3.6180
     3.6441   3.6848   3.7146   3.8323   4.0627   4.0977   4.1917   4.2777
     4.4559   4.7575   5.6455   6.0092   6.3191   6.5382   6.6075   6.8252
     7.0036   7.1462

          k = 0.2541 0.0645 0.1485 ( 36423 PWs)   bands (ev):

   -44.1606 -44.1606 -22.3058 -22.3058 -22.2110 -22.2110 -22.0801 -22.0800
    -7.4793  -7.2112  -6.7448  -6.7233  -6.4000  -5.6281  -4.9293  -4.8429
    -4.7081  -4.0947   0.5839   0.8315   0.9736   1.0067   1.1359   1.6344
     1.8836   2.2816   2.5188   2.5567   2.5965   2.9055   3.2375   3.3049
     3.6169   3.6934   3.7916   3.8713   3.9849   4.0749   4.2121   4.2725
     4.7086   5.0962   5.7732   5.8120   6.2284   6.2823   6.4935   6.6564
     7.2686   7.2765

          k = 0.2541 0.0645-0.2971 ( 36436 PWs)   bands (ev):

   -44.1606 -44.1606 -22.3058 -22.3058 -22.2110 -22.2110 -22.0800 -22.0800
    -7.3707  -7.3707  -6.7348  -6.7348  -6.0456  -6.0456  -4.8803  -4.8803
    -4.3506  -4.3506   0.7105   0.7105   0.9365   0.9365   1.3287   1.3287
     2.2610   2.2610   2.6279   2.6279   2.7473   2.7473   3.0733   3.0733
     3.5717   3.5717   3.8357   3.8357   3.9990   3.9990   4.2665   4.2665
     5.2348   5.2348   5.7325   5.7325   6.0535   6.0535   6.4877   6.4877
     7.4283   7.4284

          k = 0.5081 0.1290 0.0000 ( 36499 PWs)   bands (ev):

   -44.1597 -44.1597 -22.3011 -22.3011 -22.2353 -22.2353 -22.0769 -22.0769
    -7.2006  -6.8908  -6.5898  -6.4621  -6.3906  -5.1958  -5.1390  -4.7807
    -4.7270  -4.4114   0.4786   0.7500   0.8076   1.1613   1.3366   1.4868
     1.6502   1.8038   1.9609   2.1746   2.1927   2.2546   2.5541   3.1759
     3.3129   3.3918   3.4360   3.5493   3.7662   3.8303   3.9979   4.1505
     4.7210   5.3222   5.3993   5.8030   5.8869   6.5233   6.5376   6.8095
     7.3506   7.5644

          k = 0.5081 0.1290 0.1485 ( 36476 PWs)   bands (ev):

   -44.1597 -44.1597 -22.3011 -22.3011 -22.2353 -22.2353 -22.0769 -22.0769
    -7.1676  -6.9538  -6.5925  -6.5601  -6.1695  -5.4973  -4.9371  -4.7560
    -4.7067  -4.4443   0.4992   0.7635   0.9350   1.0958   1.2010   1.4252
     1.4672   1.6899   2.0432   2.0616   2.3341   2.5804   2.8812   3.2139
     3.2998   3.3903   3.4610   3.5655   3.6156   3.8066   3.8496   4.2106
     4.4377   4.6213   5.9774   6.0434   6.2158   6.5359   6.5779   6.6972
     7.2007   7.4755

          k = 0.5081 0.1290-0.2971 ( 36466 PWs)   bands (ev):

   -44.1597 -44.1597 -22.3011 -22.3011 -22.2353 -22.2353 -22.0769 -22.0769
    -7.0751  -7.0751  -6.5916  -6.5916  -5.8465  -5.8465  -4.8273  -4.8273
    -4.5504  -4.5504   0.6229   0.6229   1.1061   1.1061   1.2716   1.2716
     1.3591   1.3591   2.0609   2.0609   2.8026   2.8026   3.0856   3.0856
     3.3028   3.3028   3.5377   3.5377   3.7144   3.7144   3.8626   3.8626
     4.3013   4.3013   6.2026   6.2026   6.5276   6.5276   6.7565   6.7565
     7.0830   7.0830

          k = 0.7622 0.1934 0.0000 ( 36521 PWs)   bands (ev):

   -44.1588 -44.1588 -22.2962 -22.2962 -22.2597 -22.2597 -22.0738 -22.0738
    -6.8214  -6.7107  -6.3237  -6.0447  -6.0306  -5.2805  -5.2639  -5.0442
    -4.6598  -4.6247  -0.0013   0.3262   0.6682   1.1712   1.1776   1.2229
     1.4782   1.5855   1.8994   1.9393   2.2580   2.4589   2.5449   2.7153
     2.7417   3.2487   3.2729   3.3219   3.6468   3.6491   3.7793   3.8879
     4.0265   4.5728   5.7371   6.1300   6.2097   6.6230   6.6875   6.7771
     7.1725   7.5404

          k = 0.7622 0.1934 0.1485 ( 36503 PWs)   bands (ev):

   -44.1588 -44.1588 -22.2962 -22.2962 -22.2597 -22.2597 -22.0738 -22.0738
    -6.8045  -6.7253  -6.3163  -6.1936  -5.8308  -5.4100  -5.1869  -5.0659
    -4.6483  -4.6247   0.0802   0.4254   0.5577   0.9646   1.1756   1.2111
     1.4937   1.6355   1.7290   2.0933   2.1281   2.6511   2.6537   2.7994
     2.8581   3.1741   3.2747   3.3614   3.4482   3.6566   3.6972   3.8712
     4.0208   4.8258   5.3017   6.2052   6.5100   6.5420   6.6877   6.8799
     6.9483   7.4242

          k = 0.7622 0.1934-0.2971 ( 36522 PWs)   bands (ev):

   -44.1588 -44.1588 -22.2962 -22.2962 -22.2597 -22.2597 -22.0738 -22.0738
    -6.7638  -6.7638  -6.2819  -6.2819  -5.6077  -5.6077  -5.1197  -5.1197
    -4.6311  -4.6311   0.2915   0.2915   0.7296   0.7296   1.0634   1.0634
     1.5749   1.5749   1.9602   1.9602   2.3797   2.3797   2.7969   2.7969
     2.9892   2.9892   3.4271   3.4271   3.5579   3.5579   3.7694   3.7694
     4.2297   4.2297   5.9387   5.9387   6.3441   6.3441   6.7754   6.7754
     7.2674   7.2674

          k =-1.0162-0.2579 0.0000 ( 36506 PWs)   bands (ev):

   -44.1584 -44.1584 -22.2940 -22.2940 -22.2699 -22.2699 -22.0725 -22.0725
    -6.6759  -6.6556  -5.7609  -5.7523  -5.6026  -5.5893  -5.5878  -5.5871
    -4.6013  -4.5855   0.1036   0.1314   0.4560   0.4734   1.0133   1.0203
     1.4718   1.6779   2.2160   2.3211   2.3212   2.3256   2.8022   2.8399
     2.8462   2.9748   3.2542   3.2724   3.3035   3.5033   3.5687   3.6730
     3.8810   3.8850   6.3134   6.3471   6.4149   6.5012   6.9023   6.9572
     6.9664   6.9758

          k =-1.0162-0.2579 0.1485 ( 36506 PWs)   bands (ev):

   -44.1584 -44.1584 -22.2940 -22.2940 -22.2699 -22.2699 -22.0725 -22.0725
    -6.6723  -6.6580  -5.7540  -5.7460  -5.6698  -5.6664  -5.5200  -5.5132
    -4.6060  -4.5948   0.0212   0.0307   0.6634   0.6665   1.0414   1.0697
     1.4621   1.5651   1.9197   1.9735   2.3533   2.3623   2.7653   2.7793
     2.9518   2.9597   3.2019   3.2422   3.5179   3.5525   3.7030   3.7348
     4.1318   4.1489   5.8211   5.8263   6.3515   6.4218   6.8232   6.8644
     7.1952   7.2134

          k =-1.0162-0.2579-0.2971 ( 36528 PWs)   bands (ev):

   -44.1584 -44.1584 -22.2940 -22.2940 -22.2699 -22.2699 -22.0725 -22.0725
    -6.6646  -6.6646  -5.7336  -5.7336  -5.7115  -5.7115  -5.4842  -5.4842
    -4.6075  -4.6075  -0.0311  -0.0311   0.8833   0.8833   1.1084   1.1084
     1.4597   1.4597   1.6289   1.6289   2.3567   2.3567   2.7966   2.7966
     2.9251   2.9251   3.2368   3.2368   3.5659   3.5659   3.7638   3.7638
     4.6952   4.6952   5.1800   5.1800   6.3221   6.3221   6.8568   6.8568
     7.2551   7.2551

          k = 0.5081 0.0000 0.0000 ( 36503 PWs)   bands (ev):

   -44.1597 -44.1597 -22.3011 -22.3011 -22.2353 -22.2353 -22.0769 -22.0769
    -7.2071  -6.8939  -6.5817  -6.4635  -6.3853  -5.1968  -5.1352  -4.7772
    -4.7316  -4.4110   0.4765   0.7479   0.8146   1.1272   1.3320   1.4665
     1.6565   1.8077   1.9718   2.1380   2.1890   2.2357   2.5634   3.1567
     3.3165   3.3865   3.4904   3.5793   3.7738   3.8161   4.0327   4.1884
     4.7233   5.3282   5.4045   5.8344   5.8673   6.4838   6.4861   6.8447
     7.3811   7.5698

          k = 0.5081 0.0000 0.1485 ( 36453 PWs)   bands (ev):

   -44.1597 -44.1597 -22.3011 -22.3011 -22.2353 -22.2353 -22.0769 -22.0769
    -7.1741  -6.9588  -6.5839  -6.5548  -6.1697  -5.4983  -4.9304  -4.7575
    -4.7080  -4.4451   0.4966   0.7583   0.9415   1.0978   1.1704   1.4142
     1.4566   1.6883   2.0392   2.0612   2.3304   2.5552   2.8729   3.2001
     3.2933   3.4194   3.4863   3.5929   3.6085   3.8460   3.8494   4.2451
     4.4534   4.6246   5.9813   6.0600   6.2177   6.4845   6.5432   6.7272
     7.2273   7.4785

          k = 0.5081 0.0000-0.2971 ( 36452 PWs)   bands (ev):

   -44.1597 -44.1597 -22.3011 -22.3011 -22.2353 -22.2353 -22.0769 -22.0769
    -7.0812  -7.0812  -6.5837  -6.5837  -5.8477  -5.8477  -4.8230  -4.8230
    -4.5530  -4.5530   0.6181   0.6181   1.1070   1.1070   1.2832   1.2832
     1.3241   1.3241   2.0599   2.0599   2.7932   2.7932   3.0599   3.0599
     3.2960   3.2960   3.6008   3.6008   3.7177   3.7177   3.8660   3.8660
     4.3271   4.3271   6.2178   6.2178   6.4942   6.4942   6.7698   6.7698
     7.0850   7.0850

          k = 0.7622 0.0645 0.0000 ( 36505 PWs)   bands (ev):

   -44.1588 -44.1588 -22.2962 -22.2962 -22.2597 -22.2597 -22.0738 -22.0738
    -6.8310  -6.7093  -6.3140  -6.0478  -6.0294  -5.2811  -5.2583  -5.0440
    -4.6546  -4.6313  -0.0079   0.3381   0.6949   1.1608   1.2144   1.2362
     1.4329   1.5405   1.8759   1.9490   2.2024   2.4426   2.5305   2.6959
     2.7127   3.3014   3.3167   3.3231   3.5934   3.6668   3.8364   3.9147
     4.0446   4.6177   5.7359   6.1444   6.1715   6.5879   6.7328   6.7447
     7.1984   7.6635

          k = 0.7622 0.0645 0.1485 ( 36509 PWs)   bands (ev):

   -44.1588 -44.1588 -22.2962 -22.2962 -22.2597 -22.2597 -22.0738 -22.0738
    -6.8131  -6.7262  -6.3070  -6.1909  -5.8332  -5.4106  -5.1826  -5.0650
    -4.6448  -4.6295   0.0764   0.4333   0.5671   0.9900   1.1877   1.2097
     1.4533   1.6408   1.7414   2.0303   2.0483   2.6468   2.6561   2.7670
     2.8507   3.1735   3.3450   3.3842   3.4083   3.6757   3.7306   3.8886
     4.0705   4.8251   5.3294   6.1914   6.5105   6.5238   6.7055   6.8792
     6.9321   7.4426

          k = 0.7622 0.0645-0.2971 ( 36472 PWs)   bands (ev):

   -44.1588 -44.1588 -22.2962 -22.2962 -22.2597 -22.2597 -22.0738 -22.0738
    -6.7693  -6.7693  -6.2748  -6.2748  -5.6099  -5.6099  -5.1168  -5.1168
    -4.6316  -4.6316   0.2936   0.2936   0.7265   0.7265   1.0900   1.0900
     1.5708   1.5708   1.9057   1.9057   2.3447   2.3447   2.7861   2.7861
     2.9885   2.9885   3.4963   3.4963   3.5554   3.5554   3.7640   3.7640
     4.2547   4.2547   5.9621   5.9621   6.3455   6.3455   6.7404   6.7404
     7.2931   7.2931

          k = 1.0162 0.1290 0.0000 ( 36514 PWs)   bands (ev):

   -44.1584 -44.1584 -22.2940 -22.2940 -22.2699 -22.2699 -22.0725 -22.0725
    -6.6759  -6.6556  -5.7603  -5.7530  -5.6026  -5.5902  -5.5878  -5.5861
    -4.6013  -4.5855   0.0979   0.1372   0.4497   0.4799   1.0083   1.0272
     1.4766   1.6693   2.2208   2.3023   2.3172   2.3304   2.8057   2.8390
     2.8759   2.9684   3.2219   3.2958   3.3131   3.5092   3.5461   3.6804
     3.8670   3.8958   6.3130   6.3490   6.4102   6.5063   6.9101   6.9603
     6.9634   6.9780

          k = 1.0162 0.1290 0.1485 ( 36524 PWs)   bands (ev):

   -44.1584 -44.1584 -22.2940 -22.2940 -22.2699 -22.2699 -22.0725 -22.0725
    -6.6723  -6.6580  -5.7533  -5.7467  -5.6704  -5.6658  -5.5203  -5.5130
    -4.6060  -4.5948   0.0193   0.0323   0.6610   0.6695   1.0459   1.0666
     1.4660   1.5637   1.9185   1.9688   2.3450   2.3583   2.7237   2.8312
     2.9648   2.9770   3.1757   3.2446   3.5154   3.5818   3.6947   3.7075
     4.1346   4.1520   5.8090   5.8405   6.3489   6.4242   6.8301   6.8636
     7.1979   7.2108

          k = 1.0162 0.1290-0.2971 ( 36516 PWs)   bands (ev):

   -44.1584 -44.1584 -22.2940 -22.2940 -22.2699 -22.2699 -22.0725 -22.0725
    -6.6646  -6.6646  -5.7335  -5.7335  -5.7115  -5.7115  -5.4842  -5.4842
    -4.6075  -4.6075  -0.0313  -0.0313   0.8826   0.8826   1.1114   1.1114
     1.4583   1.4583   1.6299   1.6299   2.3462   2.3462   2.7790   2.7790
     2.9730   2.9730   3.2159   3.2159   3.5732   3.5732   3.7546   3.7546
     4.6954   4.6954   5.1818   5.1818   6.3218   6.3218   6.8594   6.8594
     7.2549   7.2549

          k =-0.7622-0.3224 0.0000 ( 36511 PWs)   bands (ev):

   -44.1588 -44.1588 -22.2962 -22.2962 -22.2597 -22.2597 -22.0738 -22.0738
    -6.8060  -6.7143  -6.3375  -6.0403  -6.0323  -5.2798  -5.2718  -5.0445
    -4.6644  -4.6183   0.0082   0.3098   0.6330   1.1524   1.1855   1.2030
     1.5002   1.6572   1.9276   1.9451   2.3463   2.4751   2.5676   2.7385
     2.7792   3.1568   3.2384   3.3531   3.6021   3.6528   3.7535   3.8514
     3.9962   4.5012   5.7392   6.1278   6.2524   6.6066   6.6762   6.8448
     7.1309   7.5427

          k =-0.7622-0.3224 0.1485 ( 36492 PWs)   bands (ev):

   -44.1588 -44.1588 -22.2962 -22.2962 -22.2597 -22.2597 -22.0738 -22.0738
    -6.7909  -6.7251  -6.3296  -6.1976  -5.8273  -5.4092  -5.1930  -5.0673
    -4.6513  -4.6201   0.0851   0.4157   0.5428   0.9373   1.1586   1.2163
     1.5524   1.6263   1.7084   2.1900   2.2410   2.6480   2.6649   2.8313
     2.8681   3.1749   3.1989   3.3432   3.4729   3.6216   3.6637   3.8407
     3.9386   4.8257   5.2646   6.2280   6.4926   6.5590   6.6799   6.9011
     6.9669   7.3931

          k =-0.7622-0.3224-0.2971 ( 36508 PWs)   bands (ev):

   -44.1588 -44.1588 -22.2962 -22.2962 -22.2597 -22.2597 -22.0738 -22.0738
    -6.7559  -6.7559  -6.2921  -6.2921  -5.6045  -5.6045  -5.1238  -5.1238
    -4.6304  -4.6304   0.2880   0.2880   0.7341   0.7341   1.0332   1.0332
     1.5782   1.5782   2.0259   2.0259   2.4439   2.4439   2.8167   2.8167
     2.9883   2.9883   3.3333   3.3333   3.5631   3.5631   3.7594   3.7594
     4.1953   4.1953   5.9075   5.9075   6.3404   6.3404   6.8354   6.8354
     7.2235   7.2235

          k =-0.5081-0.2579 0.0000 ( 36480 PWs)   bands (ev):

   -44.1597 -44.1597 -22.3011 -22.3011 -22.2353 -22.2353 -22.0769 -22.0769
    -7.1840  -6.8838  -6.6089  -6.4587  -6.4042  -5.1933  -5.1483  -4.7862
    -4.7189  -4.4124   0.4850   0.7486   0.7915   1.2590   1.3464   1.5392
     1.6403   1.7984   1.9390   2.2139   2.2391   2.2873   2.5360   3.2282
     3.3128   3.3131   3.4070   3.4490   3.7364   3.8387   3.9480   4.0740
     4.7128   5.3103   5.3786   5.7317   5.9371   6.6210   6.6576   6.7252
     7.2744   7.5439

          k =-0.5081-0.2579 0.1485 ( 36485 PWs)   bands (ev):

   -44.1597 -44.1597 -22.3011 -22.3011 -22.2353 -22.2353 -22.0769 -22.0769
    -7.1512  -6.9417  -6.6127  -6.5748  -6.1689  -5.4949  -4.9523  -4.7539
    -4.7028  -4.4424   0.5062   0.7712   0.9202   1.0917   1.2867   1.4331
     1.5181   1.6886   2.0535   2.0661   2.3406   2.6380   2.8999   3.2492
     3.2869   3.3154   3.4403   3.4677   3.6196   3.7691   3.8278   4.1368
     4.3918   4.6135   5.9485   6.0232   6.2124   6.6228   6.6542   6.6724
     7.1342   7.4717

          k =-0.5081-0.2579-0.2971 ( 36478 PWs)   bands (ev):

   -44.1597 -44.1597 -22.3011 -22.3011 -22.2353 -22.2353 -22.0769 -22.0769
    -7.0593  -7.0593  -6.6117  -6.6117  -5.8434  -5.8434  -4.8375  -4.8375
    -4.5443  -4.5443   0.6338   0.6338   1.1029   1.1029   1.2583   1.2583
     1.4372   1.4372   2.0623   2.0623   2.8270   2.8270   3.1532   3.1532
     3.3183   3.3183   3.3856   3.3856   3.7017   3.7017   3.8531   3.8531
     4.2367   4.2367   6.1642   6.1642   6.5978   6.5978   6.7342   6.7342
     7.0818   7.0818

          k =-0.2541-0.1934 0.0000 ( 36410 PWs)   bands (ev):

   -44.1606 -44.1606 -22.3058 -22.3058 -22.2110 -22.2110 -22.0801 -22.0800
    -7.5050  -7.0913  -6.7425  -6.7351  -6.5955  -5.2322  -5.1549  -4.8934
    -4.8192  -4.0033   0.5958   0.8661   0.9452   1.1785   1.2736   1.5307
     1.9707   2.2079   2.2113   2.4756   2.5768   3.0328   3.4100   3.5092
     3.5727   3.6835   3.7708   3.8288   4.0024   4.0963   4.1655   4.2438
     4.3973   4.7243   5.6926   6.0222   6.3542   6.5688   6.6011   6.8475
     7.0015   7.0723

          k =-0.2541-0.1934 0.1485 ( 36427 PWs)   bands (ev):

   -44.1606 -44.1606 -22.3058 -22.3058 -22.2110 -22.2110 -22.0801 -22.0800
    -7.4674  -7.1989  -6.7586  -6.7376  -6.4038  -5.6263  -4.9469  -4.8389
    -4.7015  -4.0944   0.6105   0.8927   1.0058   1.0446   1.1500   1.6517
     1.8839   2.2845   2.4937   2.5477   2.6080   2.9141   3.2350   3.3256
     3.4833   3.6267   3.7514   3.8778   3.9670   4.0599   4.1581   4.2211
     4.6880   5.0748   5.7751   5.8074   6.1941   6.3203   6.5776   6.6770
     7.2303   7.2634

          k =-0.2541-0.1934-0.2971 ( 36422 PWs)   bands (ev):

   -44.1606 -44.1606 -22.3058 -22.3058 -22.2110 -22.2110 -22.0800 -22.0800
    -7.3586  -7.3586  -6.7509  -6.7509  -6.0445  -6.0445  -4.8869  -4.8869
    -4.3473  -4.3473   0.7295   0.7295   1.0027   1.0027   1.3385   1.3385
     2.2596   2.2596   2.5902   2.5902   2.7651   2.7651   3.1054   3.1054
     3.4785   3.4785   3.7999   3.7999   3.9933   3.9933   4.2094   4.2094
     5.2240   5.2240   5.6958   5.6958   6.0404   6.0404   6.5772   6.5772
     7.4058   7.4059

          k = 0.0000-0.1290 0.0000 ( 36417 PWs)   bands (ev):

   -44.1610 -44.1610 -22.3078 -22.3078 -22.2009 -22.2009 -22.0814 -22.0813
    -7.6241  -7.1856  -6.8426  -6.7732  -6.6444  -5.2617  -5.1709  -4.9316
    -4.8628  -3.8678   0.5025   0.6958   0.8027   1.0410   1.4979   1.6385
     2.4118   2.5424   2.5793   2.9999   3.0605   3.0898   3.2092   3.4279
     3.4532   3.5323   3.8027   4.0199   4.0603   4.2195   4.2642   4.6204
     5.2519   5.5064   5.5574   5.5625   5.8811   6.1205   6.5048   6.7318
     6.9302   7.2954

          k = 0.0000-0.1290 0.1485 ( 36419 PWs)   bands (ev):

   -44.1610 -44.1610 -22.3078 -22.3078 -22.2009 -22.2009 -22.0813 -22.0813
    -7.5856  -7.3057  -6.8142  -6.7779  -6.4802  -5.6827  -4.9626  -4.8786
    -4.7036  -3.9825   0.5316   0.7339   0.9222   1.0587   1.0858   2.0768
     2.1467   2.4335   2.5519   3.0672   3.0806   3.1534   3.2419   3.3126
     3.6561   3.6745   3.7572   3.9795   4.0158   4.2458   4.2789   4.6427
     4.9779   5.0546   5.6896   5.9117   6.0785   6.1089   6.5588   6.7710
     6.7727   7.4356

          k = 0.0000-0.1290-0.2971 ( 36464 PWs)   bands (ev):

   -44.1610 -44.1610 -22.3078 -22.3078 -22.2009 -22.2009 -22.0813 -22.0813
    -7.4734  -7.4734  -6.7927  -6.7927  -6.1189  -6.1189  -4.9170  -4.9170
    -4.2891  -4.2891   0.7085   0.7085   0.8461   0.8461   1.4963   1.4963
     2.4898   2.4898   2.7175   2.7175   3.0937   3.0937   3.2728   3.2728
     3.7885   3.7885   3.8681   3.8681   4.2276   4.2276   4.4427   4.4427
     4.7402   4.7402   5.9396   5.9396   6.2875   6.2875   6.3841   6.3841
     7.1992   7.1992

          k = 1.0162 0.0000 0.0000 ( 36499 PWs)   bands (ev):

   -44.1584 -44.1584 -22.2940 -22.2940 -22.2699 -22.2699 -22.0725 -22.0725
    -6.6759  -6.6556  -5.7594  -5.7538  -5.6026  -5.5908  -5.5878  -5.5855
    -4.6013  -4.5855   0.0935   0.1417   0.4454   0.4844   1.0060   1.0316
     1.4821   1.6599   2.2276   2.2830   2.3152   2.3332   2.8121   2.8290
     2.9203   2.9531   3.2067   3.2999   3.3250   3.5111   3.5262   3.6915
     3.8506   3.9055   6.3127   6.3508   6.4058   6.5111   6.9194   6.9591
     6.9634   6.9803

          k = 1.0162 0.0000 0.1485 ( 36485 PWs)   bands (ev):

   -44.1584 -44.1584 -22.2940 -22.2940 -22.2699 -22.2699 -22.0725 -22.0725
    -6.6723  -6.6580  -5.7525  -5.7475  -5.6709  -5.6653  -5.5205  -5.5128
    -4.6060  -4.5948   0.0177   0.0335   0.6598   0.6714   1.0534   1.0603
     1.4703   1.5619   1.9171   1.9643   2.3384   2.3533   2.7087   2.8492
     2.9701   3.0228   3.1366   3.2456   3.5160   3.6365   3.6516   3.6866
     4.1363   4.1559   5.8036   5.8478   6.3465   6.4265   6.8379   6.8618
     7.2034   7.2053

          k = 1.0162 0.0000-0.2971 ( 36514 PWs)   bands (ev):

   -44.1584 -44.1584 -22.2940 -22.2940 -22.2699 -22.2699 -22.0725 -22.0725
    -6.6646  -6.6646  -5.7335  -5.7335  -5.7116  -5.7116  -5.4842  -5.4842
    -4.6075  -4.6075  -0.0314  -0.0314   0.8819   0.8819   1.1144   1.1144
     1.4568   1.4568   1.6308   1.6308   2.3361   2.3361   2.7673   2.7673
     3.0226   3.0226   3.1873   3.1873   3.5809   3.5809   3.7449   3.7449
     4.6956   4.6956   5.1835   5.1835   6.3216   6.3216   6.8620   6.8620
     7.2547   7.2547

          k = 1.2703 0.0645 0.0000 ( 36468 PWs)   bands (ev):

   -44.1588 -44.1588 -22.2962 -22.2962 -22.2597 -22.2597 -22.0738 -22.0738
    -6.7930  -6.7187  -6.3474  -6.0372  -6.0336  -5.2792  -5.2775  -5.0448
    -4.6666  -4.6147   0.0151   0.2986   0.6095   1.1470   1.1856   1.1953
     1.5029   1.7087   1.9206   1.9841   2.4067   2.4953   2.5852   2.7534
     2.8010   3.0715   3.2411   3.4287   3.5425   3.5533   3.8071   3.8256
     3.9729   4.4422   5.7409   6.1320   6.2814   6.5497   6.7173   6.8995
     7.0945   7.5521

          k = 1.2703 0.0645 0.1485 ( 36490 PWs)   bands (ev):

   -44.1588 -44.1588 -22.2962 -22.2962 -22.2597 -22.2597 -22.0738 -22.0738
    -6.7796  -6.7263  -6.3391  -6.2006  -5.8248  -5.4086  -5.1972  -5.0683
    -4.6527  -4.6176   0.0883   0.4101   0.5310   0.9222   1.1482   1.2203
     1.6096   1.6242   1.6722   2.2667   2.3200   2.6563   2.6708   2.8499
     2.8729   3.0891   3.2451   3.3493   3.4288   3.5869   3.7033   3.7983
     3.8639   4.8247   5.2397   6.2483   6.4613   6.5711   6.6871   6.9280
     6.9791   7.3670

          k = 1.2703 0.0645-0.2971 ( 36480 PWs)   bands (ev):

   -44.1588 -44.1588 -22.2962 -22.2962 -22.2597 -22.2597 -22.0738 -22.0738
    -6.7500  -6.7500  -6.2996  -6.2996  -5.6022  -5.6022  -5.1267  -5.1267
    -4.6300  -4.6300   0.2853   0.2853   0.7371   0.7371   1.0159   1.0159
     1.5803   1.5803   2.0628   2.0628   2.5001   2.5001   2.8524   2.8524
     2.9752   2.9752   3.2560   3.2560   3.5761   3.5761   3.7394   3.7394
     4.1719   4.1719   5.8866   5.8866   6.3372   6.3372   6.8890   6.8890
     7.1833   7.1833

          k =-0.5081-0.3869 0.0000 ( 36463 PWs)   bands (ev):

   -44.1597 -44.1597 -22.3011 -22.3011 -22.2353 -22.2353 -22.0769 -22.0769
    -7.1658  -6.8781  -6.6270  -6.4551  -6.4190  -5.1908  -5.1577  -4.7893
    -4.7131  -4.4133   0.4937   0.7388   0.7765   1.3548   1.3984   1.5835
     1.6254   1.8154   1.9030   2.2492   2.2698   2.3045   2.5356   3.1865
     3.2838   3.3243   3.3289   3.4475   3.7015   3.7511   3.9283   4.0585
     4.7023   5.3010   5.3400   5.6720   5.9928   6.6401   6.7324   6.7717
     7.1859   7.5634

          k =-0.5081-0.3869 0.1485 ( 36477 PWs)   bands (ev):

   -44.1597 -44.1597 -22.3011 -22.3011 -22.2353 -22.2353 -22.0769 -22.0769
    -7.1331  -6.9292  -6.6318  -6.5926  -6.1682  -5.4924  -4.9664  -4.7534
    -4.6984  -4.4406   0.5144   0.7724   0.9064   1.0875   1.4044   1.4363
     1.5695   1.6808   2.0657   2.0792   2.3381   2.6880   2.9180   3.1606
     3.2910   3.3159   3.3536   3.4703   3.6221   3.7306   3.7873   4.1002
     4.3271   4.6066   5.8958   6.0279   6.2108   6.5573   6.7577   6.7866
     7.0545   7.4791

          k =-0.5081-0.3869-0.2971 ( 36492 PWs)   bands (ev):

   -44.1597 -44.1597 -22.3011 -22.3011 -22.2353 -22.2353 -22.0769 -22.0769
    -7.0421  -7.0421  -6.6332  -6.6332  -5.8403  -5.8403  -4.8473  -4.8473
    -4.5386  -4.5386   0.6439   0.6439   1.0982   1.0982   1.2490   1.2490
     1.5267   1.5267   2.0607   2.0607   2.8519   2.8519   3.2131   3.2131
     3.2516   3.2516   3.3385   3.3385   3.6690   3.6690   3.8457   3.8457
     4.1693   4.1693   6.1258   6.1258   6.6233   6.6233   6.7512   6.7512
     7.0891   7.0891

          k =-0.2541-0.3224 0.0000 ( 36485 PWs)   bands (ev):

   -44.1606 -44.1606 -22.3058 -22.3058 -22.2110 -22.2110 -22.0801 -22.0800
    -7.4872  -7.0743  -6.7563  -6.7390  -6.6235  -5.2295  -5.1656  -4.8986
    -4.8114  -4.0048   0.6233   0.9600   0.9957   1.2275   1.3461   1.5297
     2.0035   2.2110   2.2420   2.3905   2.5169   3.1540   3.2442   3.3233
     3.5182   3.6990   3.7949   3.8057   3.9839   4.0424   4.1114   4.2041
     4.3905   4.6549   5.7678   6.0342   6.3829   6.5115   6.6851   6.8806
     6.9593   7.0090

          k =-0.2541-0.3224 0.1485 ( 36445 PWs)   bands (ev):

   -44.1606 -44.1606 -22.3058 -22.3058 -22.2110 -22.2110 -22.0801 -22.0800
    -7.4495  -7.1803  -6.7798  -6.7588  -6.4087  -5.6237  -4.9682  -4.8363
    -4.6927  -4.0940   0.6300   0.9472   1.0848   1.1157   1.2158   1.6769
     1.8893   2.2787   2.4105   2.5213   2.6295   2.9172   3.2403   3.3054
     3.3274   3.5026   3.7858   3.8764   3.9368   4.0472   4.0830   4.1413
     4.6842   5.0369   5.7677   5.8200   6.1799   6.2965   6.6817   6.7230
     7.1726   7.2563

          k =-0.2541-0.3224-0.2971 ( 36442 PWs)   bands (ev):

   -44.1606 -44.1606 -22.3058 -22.3058 -22.2110 -22.2110 -22.0800 -22.0800
    -7.3402  -7.3402  -6.7748  -6.7748  -6.0427  -6.0427  -4.8963  -4.8963
    -4.3428  -4.3428   0.7391   0.7391   1.1369   1.1369   1.3534   1.3534
     2.2519   2.2519   2.5182   2.5182   2.7823   2.7823   3.1636   3.1636
     3.3037   3.3037   3.7956   3.7956   3.9940   3.9940   4.1265   4.1265
     5.2122   5.2122   5.6578   5.6578   6.0091   6.0091   6.6847   6.6847
     7.3732   7.3732

          k = 0.0000-0.2579 0.0000 ( 36445 PWs)   bands (ev):

   -44.1610 -44.1610 -22.3078 -22.3078 -22.2009 -22.2009 -22.0814 -22.0813
    -7.6084  -7.1679  -6.8395  -6.7942  -6.6715  -5.2596  -5.1804  -4.9393
    -4.8535  -3.8694   0.5528   0.8137   0.8175   1.0785   1.5514   1.6618
     2.4217   2.5351   2.5970   3.0360   3.0461   3.1891   3.2037   3.2053
     3.2430   3.5065   3.7661   4.0003   4.0601   4.0778   4.1415   4.6249
     5.2355   5.4342   5.5746   5.6297   5.9111   6.1783   6.6050   6.6441
     6.9324   7.2545

          k = 0.0000-0.2579 0.1485 ( 36452 PWs)   bands (ev):

   -44.1610 -44.1610 -22.3078 -22.3078 -22.2009 -22.2009 -22.0813 -22.0813
    -7.5697  -7.2885  -6.8311  -6.7978  -6.4878  -5.6806  -4.9842  -4.8747
    -4.6954  -3.9823   0.5687   0.8437   0.9890   1.0819   1.1136   2.1004
     2.1793   2.4443   2.5682   3.0532   3.0700   3.1355   3.1432   3.1673
     3.6368   3.6496   3.6908   3.9323   4.0122   4.1266   4.1702   4.6471
     4.9748   5.0321   5.7132   5.9174   6.0961   6.1123   6.5268   6.7734
     6.8559   7.2425

          k = 0.0000-0.2579-0.2971 ( 36454 PWs)   bands (ev):

   -44.1610 -44.1610 -22.3078 -22.3078 -22.2009 -22.2009 -22.0813 -22.0813
    -7.4571  -7.4571  -6.8141  -6.8141  -6.1182  -6.1182  -4.9254  -4.9254
    -4.2852  -4.2852   0.7438   0.7438   0.9341   0.9341   1.5215   1.5215
     2.5030   2.5030   2.7330   2.7330   3.0808   3.0808   3.1209   3.1209
     3.7702   3.7702   3.8566   3.8566   4.0907   4.0907   4.4366   4.4366
     4.7430   4.7430   5.9029   5.9029   6.3233   6.3233   6.3872   6.3872
     7.1925   7.1925

          k = 1.5243 0.0000 0.0000 ( 36439 PWs)   bands (ev):

   -44.1597 -44.1597 -22.3011 -22.3011 -22.2353 -22.2353 -22.0769 -22.0769
    -7.1577  -6.8764  -6.6340  -6.4537  -6.4256  -5.1898  -5.1617  -4.7901
    -4.7112  -4.4137   0.4981   0.7324   0.7706   1.3579   1.5177   1.5497
     1.6144   1.8391   1.8794   2.2673   2.2732   2.3017   2.5460   3.1313
     3.2662   3.3013   3.3414   3.5129   3.6502   3.6896   3.9235   4.0716
     4.6976   5.2977   5.3168   5.6520   6.0181   6.6040   6.8018   6.8038
     7.1403   7.5349

          k = 1.5243 0.0000 0.1485 ( 36476 PWs)   bands (ev):

   -44.1597 -44.1597 -22.3011 -22.3011 -22.2353 -22.2353 -22.0769 -22.0769
    -7.1250  -6.9241  -6.6391  -6.6012  -6.1679  -5.4915  -4.9719  -4.7536
    -4.6965  -4.4399   0.5181   0.7711   0.9010   1.0859   1.4308   1.5148
     1.5332   1.6874   2.0712   2.0902   2.3310   2.7025   2.9306   3.1056
     3.2588   3.3253   3.3387   3.5545   3.5665   3.6985   3.7687   4.1079
     4.2883   4.6040   5.8712   6.0332   6.2105   6.5297   6.8040   6.8460
     7.0066   7.4905

          k = 1.5243 0.0000-0.2971 ( 36508 PWs)   bands (ev):

   -44.1597 -44.1597 -22.3011 -22.3011 -22.2353 -22.2353 -22.0769 -22.0769
    -7.0345  -7.0345  -6.6427  -6.6427  -5.8390  -5.8390  -4.8513  -4.8513
    -4.5363  -4.5363   0.6479   0.6479   1.0959   1.0959   1.2456   1.2456
     1.5698   1.5698   2.0580   2.0580   2.8615   2.8615   3.1568   3.1568
     3.2877   3.2877   3.3462   3.3462   3.6429   3.6429   3.8441   3.8441
     4.1409   4.1409   6.1102   6.1102   6.6182   6.6182   6.7709   6.7709
     7.0959   7.0959

          k =-0.2541-0.4514 0.0000 ( 36444 PWs)   bands (ev):

   -44.1606 -44.1606 -22.3058 -22.3058 -22.2110 -22.2110 -22.0801 -22.0800
    -7.4737  -7.0623  -6.7690  -6.7365  -6.6464  -5.2276  -5.1735  -4.9003
    -4.8078  -4.0058   0.6308   0.9711   1.1043   1.2721   1.4365   1.5271
     2.0421   2.1988   2.2672   2.2932   2.4354   3.1296   3.2030   3.2651
     3.5143   3.7306   3.7326   3.7757   3.9862   3.9883   4.0838   4.1782
     4.4454   4.5711   5.8300   6.0402   6.3966   6.4649   6.7346   6.8944
     6.9077   7.0011

          k =-0.2541-0.4514 0.1485 ( 36461 PWs)   bands (ev):

   -44.1606 -44.1606 -22.3058 -22.3058 -22.2110 -22.2110 -22.0801 -22.0800
    -7.4359  -7.1661  -6.7948  -6.7759  -6.4119  -5.6218  -4.9817  -4.8356
    -4.6870  -4.0937   0.6338   0.9664   1.0985   1.2519   1.2996   1.6975
     1.9025   2.2521   2.3105   2.4745   2.6485   2.9084   3.1882   3.2021
     3.3557   3.4983   3.8108   3.8267   3.9263   4.0064   4.0561   4.0966
     4.6960   5.0037   5.7620   5.8353   6.1916   6.2405   6.7457   6.7576
     7.1380   7.2521

          k =-0.2541-0.4514-0.2971 ( 36490 PWs)   bands (ev):

   -44.1606 -44.1606 -22.3058 -22.3058 -22.2110 -22.2110 -22.0800 -22.0800
    -7.3263  -7.3263  -6.7927  -6.7927  -6.0413  -6.0413  -4.9029  -4.9029
    -4.3397  -4.3397   0.7395   0.7395   1.2610   1.2610   1.3713   1.3713
     2.2275   2.2275   2.4474   2.4474   2.7916   2.7916   3.1720   3.1720
     3.2317   3.2317   3.7850   3.7850   4.0022   4.0022   4.0692   4.0692
     5.2058   5.2058   5.6370   5.6370   5.9816   5.9816   6.7495   6.7495
     7.3503   7.3503

          k = 0.0000-0.3869 0.0000 ( 36477 PWs)   bands (ev):

   -44.1610 -44.1610 -22.3078 -22.3078 -22.2009 -22.2009 -22.0814 -22.0813
    -7.5917  -7.1493  -6.8363  -6.8125  -6.7031  -5.2574  -5.1906  -4.9429
    -4.8478  -3.8710   0.5765   0.8329   0.9753   1.1458   1.6164   1.6836
     2.4320   2.5096   2.6159   2.9130   3.0221   3.0308   3.0919   3.1982
     3.3249   3.4802   3.7983   3.8964   3.9844   4.0073   4.0597   4.6296
     5.2195   5.3935   5.5918   5.7072   5.9424   6.2105   6.5397   6.6782
     6.9343   7.2187

          k = 0.0000-0.3869 0.1485 ( 36452 PWs)   bands (ev):

   -44.1610 -44.1610 -22.3078 -22.3078 -22.2009 -22.2009 -22.0813 -22.0813
    -7.5529  -7.2700  -6.8503  -6.8183  -6.4948  -5.6784  -5.0029  -4.8731
    -4.6878  -3.9821   0.5801   0.9637   1.0633   1.1173   1.1975   2.1282
     2.2025   2.4555   2.5855   2.8536   2.8837   3.0384   3.1324   3.2650
     3.6175   3.6274   3.6903   3.9098   4.0044   4.0084   4.0628   4.6518
     4.9717   5.0208   5.7463   5.9236   6.0889   6.1138   6.4903   6.7757
     6.9136   7.2022

          k = 0.0000-0.3869-0.2971 ( 36454 PWs)   bands (ev):

   -44.1610 -44.1610 -22.3078 -22.3078 -22.2009 -22.2009 -22.0813 -22.0813
    -7.4397  -7.4397  -6.8368  -6.8368  -6.1173  -6.1173  -4.9339  -4.9339
    -4.2815  -4.2815   0.7432   0.7432   1.0888   1.0888   1.5493   1.5493
     2.5169   2.5169   2.6753   2.6753   2.9812   2.9812   3.0672   3.0672
     3.7761   3.7761   3.8450   3.8450   3.9880   3.9880   4.4244   4.4244
     4.7459   4.7459   5.8663   5.8663   6.3439   6.3439   6.3906   6.3906
     7.1667   7.1667

          k =-2.0325 0.0000 0.0000 ( 36452 PWs)   bands (ev):

   -44.1610 -44.1610 -22.3078 -22.3078 -22.2009 -22.2009 -22.0814 -22.0813
    -7.5844  -7.1415  -6.8350  -6.8186  -6.7182  -5.2565  -5.1949  -4.9435
    -4.8462  -3.8717   0.5796   0.8395   1.0807   1.1563   1.6579   1.6921
     2.4363   2.4871   2.6242   2.7679   2.9367   3.0241   3.1226   3.1960
     3.4144   3.4691   3.7878   3.8284   3.9459   3.9694   4.0594   4.6316
     5.2130   5.3819   5.5989   5.7443   5.9563   6.2198   6.4897   6.7028
     6.9351   7.2038

          k =-2.0325 0.0000 0.1485 ( 36456 PWs)   bands (ev):

   -44.1610 -44.1610 -22.3078 -22.3078 -22.2009 -22.2009 -22.0813 -22.0813
    -7.5455  -7.2619  -6.8586  -6.8273  -6.4975  -5.6774  -5.0101  -4.8728
    -4.6848  -3.9821   0.5796   1.0089   1.0740   1.1600   1.2626   2.1396
     2.2094   2.4603   2.5930   2.7197   2.7867   3.0320   3.1278   3.3296
     3.6068   3.6095   3.7047   3.8789   3.9612   4.0068   4.0261   4.6538
     4.9703   5.0185   5.7639   5.9264   6.0714   6.1203   6.4749   6.7766
     6.9313   7.1869

          k =-2.0325 0.0000-0.2971 ( 36460 PWs)   bands (ev):

   -44.1610 -44.1610 -22.3078 -22.3078 -22.2009 -22.2009 -22.0813 -22.0813
    -7.4321  -7.4321  -6.8466  -6.8466  -6.1168  -6.1168  -4.9374  -4.9374
    -4.2799  -4.2799   0.7398   0.7398   1.1705   1.1705   1.5628   1.5628
     2.5228   2.5228   2.5957   2.5957   2.9622   2.9622   3.0614   3.0614
     3.7725   3.7726   3.8403   3.8403   3.9573   3.9573   4.4198   4.4198
     4.7472   4.7472   5.8500   5.8500   6.3497   6.3497   6.3921   6.3921
     7.1536   7.1536

     the Fermi energy is     5.2594 ev

!    total energy              =   -4240.93024500 Ry

     total all-electron energy =   -150287.623940 Ry
     estimated scf accuracy    <          2.8E-11 Ry
     smearing contrib. (-TS)   =       0.00003118 Ry
     internal energy E=F+TS    =   -4240.93027618 Ry

     The total energy is F=E-TS. E is the sum of the following terms:
     one-electron contribution =    -164.45400637 Ry
     hartree contribution      =     115.68902638 Ry
     xc contribution           =    -201.40310604 Ry
     ewald contribution        =    -223.25404131 Ry
     one-center paw contrib.   =   -3767.50814884 Ry

     convergence has been achieved in  15 iterations

     Forces acting on atoms (cartesian axes, Ry/au):

     atom    1 type  1   force =     0.00000000   -0.02572485    0.00000000
     atom    2 type  1   force =     0.00000000    0.02572485    0.00000000
     atom    3 type  2   force =     0.00000000    0.00241125    0.00000000
     atom    4 type  2   force =     0.00000000   -0.00241125    0.00000000
     atom    5 type  2   force =     0.00000000    0.00567960   -0.00033556
     atom    6 type  2   force =     0.00000000   -0.00567960    0.00033556
     atom    7 type  2   force =    -0.00000000    0.00567960    0.00033556
     atom    8 type  2   force =     0.00000000   -0.00567960   -0.00033556
     atom    9 type  2   force =     0.00000000    0.02050570    0.01474555
     atom   10 type  2   force =     0.00000000   -0.02050570   -0.01474555
     atom   11 type  2   force =     0.00000000    0.02050570   -0.01474555
     atom   12 type  2   force =     0.00000000   -0.02050570    0.01474555

     Total force =     0.063374     Total SCF correction =     0.000009


     Computing stress (Cartesian axis) and pressure

          total   stress  (Ry/bohr**3)                   (kbar)     P=       -5.05
  -0.00001402   0.00000000   0.00000000           -2.06        0.00        0.00
   0.00000000  -0.00003444   0.00000000            0.00       -5.07        0.00
   0.00000000   0.00000000  -0.00005443            0.00        0.00       -8.01

 
     init_run     :     36.24s CPU     36.93s WALL (       1 calls)
     electrons    :   1661.91s CPU   1678.18s WALL (       1 calls)
     forces       :      6.99s CPU      7.23s WALL (       1 calls)
     stress       :     48.39s CPU     49.04s WALL (       1 calls)

     Called by init_run:
     wfcinit      :     31.37s CPU     31.64s WALL (       1 calls)
     potinit      :      1.55s CPU      1.61s WALL (       1 calls)
     hinit0       :      1.57s CPU      1.62s WALL (       1 calls)

     Called by electrons:
     c_bands      :   1373.67s CPU   1380.87s WALL (      16 calls)
     sum_band     :    259.07s CPU    264.40s WALL (      16 calls)
     v_of_rho     :      7.52s CPU      8.06s WALL (      16 calls)
     newd         :     15.82s CPU     19.27s WALL (      16 calls)
     PAW_pot      :      5.64s CPU      5.65s WALL (      16 calls)
     mix_rho      :      1.37s CPU      1.41s WALL (      16 calls)

     Called by c_bands:
     init_us_2    :     12.49s CPU     12.54s WALL (    2205 calls)
     cegterg      :   1305.41s CPU   1311.97s WALL (    1008 calls)

     Called by *egterg:
     cdiaghg      :     27.94s CPU     28.07s WALL (    7864 calls)
     h_psi        :   1125.55s CPU   1131.82s WALL (    7990 calls)
     s_psi        :     50.54s CPU     50.62s WALL (    7990 calls)
     g_psi        :      2.29s CPU      2.31s WALL (    6919 calls)

     Called by h_psi:
     h_psi:calbec :     42.44s CPU     42.53s WALL (    7990 calls)
     vloc_psi     :   1029.28s CPU   1035.32s WALL (    7990 calls)
     add_vuspsi   :     49.92s CPU     50.00s WALL (    7990 calls)

     General routines
     calbec       :     55.29s CPU     55.42s WALL (    9313 calls)
     fft          :      6.87s CPU      7.09s WALL (     232 calls)
     ffts         :      0.17s CPU      0.17s WALL (      32 calls)
     fftw         :   1019.04s CPU   1024.79s WALL (  407668 calls)
     interpolate  :      0.56s CPU      0.56s WALL (      16 calls)
 
     Parallel routines
     fft_scatt_xy :    250.10s CPU    251.58s WALL (  407932 calls)
     fft_scatt_yz :    255.78s CPU    257.40s WALL (  407932 calls)
 
     PWSCF        :  29m13.78s CPU  29m32.24s WALL

 
   This run was terminated on:  15:23:22  19Nov2021            

=------------------------------------------------------------------------------=
   JOB DONE.
=------------------------------------------------------------------------------=
