
     Program PWSCF v.6.7MaX starts on 19Nov2021 at 15:12:38 

     This program is part of the open-source Quantum ESPRESSO suite
     for quantum simulation of materials; please cite
         "P. Giannozzi et al., J. Phys.:Condens. Matter 21 395502 (2009);
         "P. Giannozzi et al., J. Phys.:Condens. Matter 29 465901 (2017);
          URL http://www.quantum-espresso.org", 
     in publications or presentations arising from this work. More details at
     http://www.quantum-espresso.org/quote

     Parallel version (MPI), running on    10 processors

     MPI processes distributed on     1 nodes
     R & G space division:  proc/nbgrp/npool/nimage =      10
     Waiting for input...
     Reading input from standard input

     Current dimensions of program PWSCF are:
     Max number of different atomic species (ntypx) = 10
     Max number of k-points (npk) =  40000
     Max angular momentum in pseudopotentials (lmaxx) =  3
     file Zr.pbe-spn-kjpaw_psl.1.0.0.UPF: wavefunction(s)  4S 4P renormalized
     file Te.pbe-n-kjpaw_psl.1.0.0.UPF: wavefunction(s)  5S 5P renormalized

     Subspace diagonalization in iterative solution of the eigenvalue problem:
     a serial algorithm will be used

     Message from routine setup:
     using ibrav=0 with symmetry is DISCOURAGED, use correct ibrav instead
 
     Parallelization info
     --------------------
     sticks:   dense  smooth     PW     G-vecs:    dense   smooth      PW
     Min         734     293     87               115340    29174    4753
     Max         735     295     88               115345    29176    4760
     Sum        7345    2937    873              1153415   291749   47557
 


     bravais-lattice index     =            0
     lattice parameter (alat)  =      15.5510  a.u.
     unit-cell volume          =    3018.5011 (a.u.)^3
     number of atoms/cell      =           12
     number of atomic types    =            2
     number of electrons       =        84.00
     number of Kohn-Sham states=           50
     kinetic-energy cutoff     =      80.0000  Ry
     charge density cutoff     =     800.0000  Ry
     scf convergence threshold =      1.0E-10
     mixing beta               =       0.7000
     number of iterations used =            8  plain     mixing
     Exchange-correlation= SLA  PW   PBX  PBC
                           (   1   4   3   4   0   0   0)

     celldm(1)=  15.551040  celldm(2)=   0.000000  celldm(3)=   0.000000
     celldm(4)=   0.000000  celldm(5)=   0.000000  celldm(6)=   0.000000

     crystal axes: (cart. coord. in units of alat)
               a(1) = (   0.246007  -0.969268   0.000000 )  
               a(2) = (   0.246007   0.969268   0.000000 )  
               a(3) = (   0.000000   0.000000   1.683031 )  

     reciprocal axes: (cart. coord. in units 2 pi/alat)
               b(1) = (  2.032465 -0.515853  0.000000 )  
               b(2) = (  2.032465  0.515853  0.000000 )  
               b(3) = (  0.000000  0.000000  0.594166 )  


     PseudoPot. # 1 for Zr read from file:
     pseudo/Zr.pbe-spn-kjpaw_psl.1.0.0.UPF
     MD5 check sum: 02112c41713a0468aff2bb39ef194e36
     Pseudo is Projector augmented-wave + core cor, Zval = 12.0
     Generated using &quot;atomic&quot; code by A. Dal Corso  v.6.2.2
     Shape of augmentation charge: PSQ
     Using radial grid of 1225 points,  6 beta functions with: 
                l(1) =   0
                l(2) =   0
                l(3) =   1
                l(4) =   1
                l(5) =   2
                l(6) =   2
     Q(r) pseudized with 0 coefficients 


     PseudoPot. # 2 for Te read from file:
     pseudo/Te.pbe-n-kjpaw_psl.1.0.0.UPF
     MD5 check sum: 66247bff2bd9dbf220fbb0bf5ab56e9d
     Pseudo is Projector augmented-wave + core cor, Zval =  6.0
     Generated using &quot;atomic&quot; code by A. Dal Corso  v.6.3
     Shape of augmentation charge: PSQ
     Using radial grid of 1245 points,  6 beta functions with: 
                l(1) =   0
                l(2) =   0
                l(3) =   1
                l(4) =   1
                l(5) =   2
                l(6) =   2
     Q(r) pseudized with 0 coefficients 


     atomic species   valence    mass     pseudopotential
        Zr            12.00    91.22000     Zr( 1.00)
        Te             6.00   127.60000     Te( 1.00)

      8 Sym. Ops., with inversion, found ( 4 have fractional translation)



   Cartesian axes

     site n.     atom                  positions (alat units)
         1           Zr  tau(   1) = (   0.0000000   0.6147767   0.4207578  )
         2           Zr  tau(   2) = (   0.2460067   0.3544914   1.2622733  )
         3           Te  tau(   3) = (   0.2460067   0.3344327   0.4207578  )
         4           Te  tau(   4) = (   0.0000000   0.6348355   1.2622733  )
         5           Te  tau(   5) = (   0.2460067   0.8056519   0.2492143  )
         6           Te  tau(   6) = (   0.0000000   0.1636162   1.4338168  )
         7           Te  tau(   7) = (   0.2460067   0.8056519   0.5923012  )
         8           Te  tau(   8) = (   0.0000000   0.1636162   1.0907298  )
         9           Te  tau(   9) = (   0.0000000   0.3988288   0.7155571  )
        10           Te  tau(  10) = (   0.2460067   0.5704393   0.9674740  )
        11           Te  tau(  11) = (   0.0000000   0.3988288   0.1259584  )
        12           Te  tau(  12) = (   0.2460067   0.5704393   1.5570726  )

     number of k points=    63  Methfessel-Paxton smearing, width (Ry)=  0.0030
                       cart. coord. in units 2pi/alat
        k(    1) = (   0.0000000   0.0000000   0.0000000), wk =   0.0078125
        k(    2) = (   0.0000000   0.0000000   0.1485415), wk =   0.0156250
        k(    3) = (   0.0000000   0.0000000  -0.2970830), wk =   0.0078125
        k(    4) = (   0.2540581   0.0644816   0.0000000), wk =   0.0312500
        k(    5) = (   0.2540581   0.0644816   0.1485415), wk =   0.0625000
        k(    6) = (   0.2540581   0.0644816  -0.2970830), wk =   0.0312500
        k(    7) = (   0.5081162   0.1289633   0.0000000), wk =   0.0312500
        k(    8) = (   0.5081162   0.1289633   0.1485415), wk =   0.0625000
        k(    9) = (   0.5081162   0.1289633  -0.2970830), wk =   0.0312500
        k(   10) = (   0.7621743   0.1934449   0.0000000), wk =   0.0312500
        k(   11) = (   0.7621743   0.1934449   0.1485415), wk =   0.0625000
        k(   12) = (   0.7621743   0.1934449  -0.2970830), wk =   0.0312500
        k(   13) = (  -1.0162324  -0.2579266   0.0000000), wk =   0.0156250
        k(   14) = (  -1.0162324  -0.2579266   0.1485415), wk =   0.0312500
        k(   15) = (  -1.0162324  -0.2579266  -0.2970830), wk =   0.0156250
        k(   16) = (   0.5081162   0.0000000   0.0000000), wk =   0.0156250
        k(   17) = (   0.5081162   0.0000000   0.1485415), wk =   0.0312500
        k(   18) = (   0.5081162   0.0000000  -0.2970830), wk =   0.0156250
        k(   19) = (   0.7621743   0.0644816   0.0000000), wk =   0.0312500
        k(   20) = (   0.7621743   0.0644816   0.1485415), wk =   0.0625000
        k(   21) = (   0.7621743   0.0644816  -0.2970830), wk =   0.0312500
        k(   22) = (   1.0162324   0.1289633   0.0000000), wk =   0.0312500
        k(   23) = (   1.0162324   0.1289633   0.1485415), wk =   0.0625000
        k(   24) = (   1.0162324   0.1289633  -0.2970830), wk =   0.0312500
        k(   25) = (  -0.7621743  -0.3224082   0.0000000), wk =   0.0312500
        k(   26) = (  -0.7621743  -0.3224082   0.1485415), wk =   0.0625000
        k(   27) = (  -0.7621743  -0.3224082  -0.2970830), wk =   0.0312500
        k(   28) = (  -0.5081162  -0.2579266   0.0000000), wk =   0.0312500
        k(   29) = (  -0.5081162  -0.2579266   0.1485415), wk =   0.0625000
        k(   30) = (  -0.5081162  -0.2579266  -0.2970830), wk =   0.0312500
        k(   31) = (  -0.2540581  -0.1934449   0.0000000), wk =   0.0312500
        k(   32) = (  -0.2540581  -0.1934449   0.1485415), wk =   0.0625000
        k(   33) = (  -0.2540581  -0.1934449  -0.2970830), wk =   0.0312500
        k(   34) = (   0.0000000  -0.1289633   0.0000000), wk =   0.0156250
        k(   35) = (   0.0000000  -0.1289633   0.1485415), wk =   0.0312500
        k(   36) = (   0.0000000  -0.1289633  -0.2970830), wk =   0.0156250
        k(   37) = (   1.0162324   0.0000000   0.0000000), wk =   0.0156250
        k(   38) = (   1.0162324   0.0000000   0.1485415), wk =   0.0312500
        k(   39) = (   1.0162324   0.0000000  -0.2970830), wk =   0.0156250
        k(   40) = (   1.2702905   0.0644816   0.0000000), wk =   0.0312500
        k(   41) = (   1.2702905   0.0644816   0.1485415), wk =   0.0625000
        k(   42) = (   1.2702905   0.0644816  -0.2970830), wk =   0.0312500
        k(   43) = (  -0.5081162  -0.3868899   0.0000000), wk =   0.0312500
        k(   44) = (  -0.5081162  -0.3868899   0.1485415), wk =   0.0625000
        k(   45) = (  -0.5081162  -0.3868899  -0.2970830), wk =   0.0312500
        k(   46) = (  -0.2540581  -0.3224082   0.0000000), wk =   0.0312500
        k(   47) = (  -0.2540581  -0.3224082   0.1485415), wk =   0.0625000
        k(   48) = (  -0.2540581  -0.3224082  -0.2970830), wk =   0.0312500
        k(   49) = (   0.0000000  -0.2579266   0.0000000), wk =   0.0156250
        k(   50) = (   0.0000000  -0.2579266   0.1485415), wk =   0.0312500
        k(   51) = (   0.0000000  -0.2579266  -0.2970830), wk =   0.0156250
        k(   52) = (   1.5243485   0.0000000   0.0000000), wk =   0.0156250
        k(   53) = (   1.5243485   0.0000000   0.1485415), wk =   0.0312500
        k(   54) = (   1.5243485   0.0000000  -0.2970830), wk =   0.0156250
        k(   55) = (  -0.2540581  -0.4513715   0.0000000), wk =   0.0312500
        k(   56) = (  -0.2540581  -0.4513715   0.1485415), wk =   0.0625000
        k(   57) = (  -0.2540581  -0.4513715  -0.2970830), wk =   0.0312500
        k(   58) = (   0.0000000  -0.3868899   0.0000000), wk =   0.0156250
        k(   59) = (   0.0000000  -0.3868899   0.1485415), wk =   0.0312500
        k(   60) = (   0.0000000  -0.3868899  -0.2970830), wk =   0.0156250
        k(   61) = (  -2.0324647   0.0000000   0.0000000), wk =   0.0078125
        k(   62) = (  -2.0324647   0.0000000   0.1485415), wk =   0.0156250
        k(   63) = (  -2.0324647   0.0000000  -0.2970830), wk =   0.0078125

     Dense  grid:  1153415 G-vectors     FFT dimensions: ( 144, 144, 240)

     Smooth grid:   291749 G-vectors     FFT dimensions: (  90,  90, 150)

     Estimated max dynamical RAM per process >     657.19 MB

     Estimated total dynamical RAM >       6.42 GB

     Initial potential from superposition of free atoms

     starting charge   83.99353, renormalised to   84.00000
     Starting wfcs are   66 randomized atomic wfcs
     Checking if some PAW data can be deallocated... 

     total cpu time spent up to now is       34.9 secs

     Self-consistent Calculation

     iteration #  1     ecut=    80.00 Ry     beta= 0.70
     Davidson diagonalization with overlap
     ethr =  1.00E-02,  avg # of iterations =  2.0

     Threshold (ethr) on eigenvalues was too large:
     Diagonalizing with lowered threshold

     Davidson diagonalization with overlap
     ethr =  3.62E-04,  avg # of iterations =  4.1

     total cpu time spent up to now is      185.7 secs

     total energy              =   -4240.70234049 Ry
     estimated scf accuracy    <       0.42270612 Ry

     iteration #  2     ecut=    80.00 Ry     beta= 0.70
     Davidson diagonalization with overlap
     ethr =  5.03E-04,  avg # of iterations =  7.6

     total cpu time spent up to now is      265.3 secs

     total energy              =   -4240.61430155 Ry
     estimated scf accuracy    <       2.16507587 Ry

     iteration #  3     ecut=    80.00 Ry     beta= 0.70
     Davidson diagonalization with overlap
     ethr =  5.03E-04,  avg # of iterations =  5.2

     total cpu time spent up to now is      335.3 secs

     total energy              =   -4240.89842365 Ry
     estimated scf accuracy    <       0.02330107 Ry

     iteration #  4     ecut=    80.00 Ry     beta= 0.70
     Davidson diagonalization with overlap
     c_bands:  1 eigenvalues not converged
     c_bands:  2 eigenvalues not converged
     ethr =  2.77E-05,  avg # of iterations = 15.8

     total cpu time spent up to now is      451.8 secs

     total energy              =   -4240.91888446 Ry
     estimated scf accuracy    <       0.08550329 Ry

     iteration #  5     ecut=    80.00 Ry     beta= 0.70
     Davidson diagonalization with overlap
     ethr =  2.77E-05,  avg # of iterations =  4.1

     total cpu time spent up to now is      511.7 secs

     total energy              =   -4240.92015721 Ry
     estimated scf accuracy    <       0.02128210 Ry

     iteration #  6     ecut=    80.00 Ry     beta= 0.70
     Davidson diagonalization with overlap
     ethr =  2.53E-05,  avg # of iterations =  3.0

     total cpu time spent up to now is      567.5 secs

     total energy              =   -4240.92166826 Ry
     estimated scf accuracy    <       0.00233957 Ry

     iteration #  7     ecut=    80.00 Ry     beta= 0.70
     Davidson diagonalization with overlap
     c_bands:  1 eigenvalues not converged
     c_bands:  1 eigenvalues not converged
     c_bands:  1 eigenvalues not converged
     c_bands:  1 eigenvalues not converged
     c_bands:  2 eigenvalues not converged
     c_bands:  2 eigenvalues not converged
     c_bands:  2 eigenvalues not converged
     c_bands:  1 eigenvalues not converged
     c_bands:  1 eigenvalues not converged
     c_bands:  2 eigenvalues not converged
     ethr =  2.79E-06,  avg # of iterations = 14.2

     total cpu time spent up to now is      667.4 secs

     total energy              =   -4240.92312961 Ry
     estimated scf accuracy    <       0.00257601 Ry

     iteration #  8     ecut=    80.00 Ry     beta= 0.70
     Davidson diagonalization with overlap
     c_bands:  1 eigenvalues not converged
     ethr =  2.79E-06,  avg # of iterations =  2.9

     total cpu time spent up to now is      718.3 secs

     total energy              =   -4240.92313528 Ry
     estimated scf accuracy    <       0.00056256 Ry

     iteration #  9     ecut=    80.00 Ry     beta= 0.70
     Davidson diagonalization with overlap
     ethr =  6.70E-07,  avg # of iterations =  5.7

     total cpu time spent up to now is      780.5 secs

     total energy              =   -4240.92324523 Ry
     estimated scf accuracy    <       0.00000878 Ry

     iteration # 10     ecut=    80.00 Ry     beta= 0.70
     Davidson diagonalization with overlap
     c_bands:  1 eigenvalues not converged
     c_bands:  1 eigenvalues not converged
     ethr =  1.04E-08,  avg # of iterations = 11.2

     total cpu time spent up to now is      883.9 secs

     total energy              =   -4240.92326878 Ry
     estimated scf accuracy    <       0.00002452 Ry

     iteration # 11     ecut=    80.00 Ry     beta= 0.70
     Davidson diagonalization with overlap
     c_bands:  1 eigenvalues not converged
     ethr =  1.04E-08,  avg # of iterations =  3.6

     total cpu time spent up to now is      943.0 secs

     total energy              =   -4240.92327157 Ry
     estimated scf accuracy    <       0.00000057 Ry

     iteration # 12     ecut=    80.00 Ry     beta= 0.70
     Davidson diagonalization with overlap
     ethr =  6.83E-10,  avg # of iterations =  8.2

     total cpu time spent up to now is     1028.5 secs

     total energy              =   -4240.92327196 Ry
     estimated scf accuracy    <       0.00000060 Ry

     iteration # 13     ecut=    80.00 Ry     beta= 0.70
     Davidson diagonalization with overlap
     ethr =  6.83E-10,  avg # of iterations =  2.2

     total cpu time spent up to now is     1081.9 secs

     total energy              =   -4240.92327201 Ry
     estimated scf accuracy    <       0.00000003 Ry

     iteration # 14     ecut=    80.00 Ry     beta= 0.70
     Davidson diagonalization with overlap
     c_bands:  1 eigenvalues not converged
     ethr =  3.30E-11,  avg # of iterations =  9.0

     total cpu time spent up to now is     1169.9 secs

     total energy              =   -4240.92327204 Ry
     estimated scf accuracy    <       0.00000006 Ry

     iteration # 15     ecut=    80.00 Ry     beta= 0.70
     Davidson diagonalization with overlap
     ethr =  3.30E-11,  avg # of iterations =  2.1

     total cpu time spent up to now is     1221.0 secs

     total energy              =   -4240.92327204 Ry
     estimated scf accuracy    <       0.00000001 Ry

     iteration # 16     ecut=    80.00 Ry     beta= 0.70
     Davidson diagonalization with overlap
     ethr =  1.36E-11,  avg # of iterations =  6.2

     total cpu time spent up to now is     1285.5 secs

     total energy              =   -4240.92327204 Ry
     estimated scf accuracy    <          9.3E-10 Ry

     iteration # 17     ecut=    80.00 Ry     beta= 0.70
     Davidson diagonalization with overlap
     ethr =  1.11E-12,  avg # of iterations =  5.6

     total cpu time spent up to now is     1349.0 secs

     total energy              =   -4240.92327204 Ry
     estimated scf accuracy    <          5.7E-10 Ry

     iteration # 18     ecut=    80.00 Ry     beta= 0.70
     Davidson diagonalization with overlap
     ethr =  6.78E-13,  avg # of iterations =  2.6

     total cpu time spent up to now is     1401.2 secs

     total energy              =   -4240.92327204 Ry
     estimated scf accuracy    <          1.9E-10 Ry

     iteration # 19     ecut=    80.00 Ry     beta= 0.70
     Davidson diagonalization with overlap
     ethr =  2.21E-13,  avg # of iterations =  6.3

     total cpu time spent up to now is     1469.6 secs

     End of self-consistent calculation

          k = 0.0000 0.0000 0.0000 ( 36359 PWs)   bands (ev):

   -44.1730 -44.1730 -22.3245 -22.3245 -22.2131 -22.2131 -22.0922 -22.0921
    -7.6232  -7.2230  -6.7650  -6.7340  -6.6920  -5.2041  -5.2000  -4.9478
    -4.8878  -3.8633   0.4938   0.6264   0.8227   1.0190   1.4579   1.6536
     2.3864   2.5263   2.5869   2.9870   3.0143   3.0784   3.2969   3.4604
     3.4884   3.5026   3.8693   4.0176   4.0343   4.2623   4.3062   4.6162
     5.3607   5.5028   5.5053   5.5487   5.8918   6.1086   6.4918   6.7304
     6.9289   7.3266

          k = 0.0000 0.0000 0.1485 ( 36415 PWs)   bands (ev):

   -44.1730 -44.1730 -22.3245 -22.3245 -22.2131 -22.2131 -22.0921 -22.0921
    -7.5858  -7.3228  -6.7792  -6.7695  -6.4733  -5.6653  -4.9759  -4.9019
    -4.6976  -3.9770   0.5211   0.6648   0.8968   1.0639   1.0862   2.1000
     2.1461   2.4053   2.5044   3.0283   3.0884   3.2078   3.2510   3.3364
     3.6354   3.6890   3.8098   3.9784   4.0182   4.2812   4.3171   4.6433
     5.0187   5.0771   5.6551   5.9182   6.0899   6.1309   6.5501   6.7476
     6.7753   7.3131

          k = 0.0000 0.0000-0.2971 ( 36410 PWs)   bands (ev):

   -44.1730 -44.1730 -22.3245 -22.3245 -22.2131 -22.2131 -22.0921 -22.0921
    -7.4780  -7.4780  -6.7790  -6.7790  -6.1031  -6.1031  -4.9363  -4.9363
    -4.2818  -4.2818   0.6748   0.6748   0.8160   0.8160   1.5236   1.5236
     2.4533   2.4533   2.7103   2.7103   3.1258   3.1258   3.2756   3.2756
     3.8005   3.8005   3.8443   3.8443   4.3020   4.3020   4.4421   4.4421
     4.7568   4.7568   5.9442   5.9442   6.2875   6.2875   6.3945   6.3945
     7.2110   7.2110

          k = 0.2541 0.0645 0.0000 ( 36396 PWs)   bands (ev):

   -44.1726 -44.1726 -22.3225 -22.3225 -22.2233 -22.2233 -22.0908 -22.0908
    -7.5093  -7.1281  -6.7204  -6.6387  -6.6374  -5.1807  -5.1750  -4.9083
    -4.8476  -3.9973   0.5819   0.7654   0.9618   1.1349   1.2065   1.5593
     1.9566   2.1680   2.2586   2.4979   2.6000   2.9248   3.5396   3.5827
     3.6184   3.6822   3.6881   3.8691   4.0557   4.1081   4.1716   4.2912
     4.4533   4.7950   5.6097   6.0219   6.3410   6.5384   6.5912   6.8097
     7.0124   7.1549

          k = 0.2541 0.0645 0.1485 ( 36423 PWs)   bands (ev):

   -44.1726 -44.1726 -22.3225 -22.3225 -22.2233 -22.2233 -22.0908 -22.0908
    -7.4729  -7.2199  -6.7268  -6.7212  -6.3901  -5.6095  -4.9518  -4.8638
    -4.7001  -4.0883   0.5974   0.8063   0.9652   1.0075   1.1419   1.6516
     1.8950   2.2389   2.5112   2.5904   2.6135   2.8922   3.2274   3.3155
     3.5793   3.7014   3.7774   3.8569   3.9668   4.0642   4.2117   4.2657
     4.7255   5.1354   5.7410   5.8209   6.2299   6.2899   6.5059   6.6437
     7.2505   7.2885

          k = 0.2541 0.0645-0.2971 ( 36436 PWs)   bands (ev):

   -44.1726 -44.1726 -22.3225 -22.3225 -22.2233 -22.2233 -22.0908 -22.0908
    -7.3682  -7.3682  -6.7316  -6.7316  -6.0282  -6.0282  -4.9035  -4.9035
    -4.3415  -4.3415   0.7142   0.7142   0.9124   0.9124   1.3577   1.3577
     2.2265   2.2265   2.6253   2.6253   2.7937   2.7937   3.0705   3.0705
     3.5531   3.5531   3.8221   3.8221   3.9723   3.9723   4.2594   4.2594
     5.2713   5.2713   5.7349   5.7349   6.0303   6.0303   6.5030   6.5030
     7.4142   7.4145

          k = 0.5081 0.1290 0.0000 ( 36499 PWs)   bands (ev):

   -44.1717 -44.1717 -22.3178 -22.3178 -22.2479 -22.2479 -22.0876 -22.0876
    -7.1926  -6.9001  -6.5924  -6.4595  -6.3622  -5.1605  -5.1484  -4.8037
    -4.7484  -4.4038   0.4475   0.7633   0.8631   1.1414   1.3659   1.4679
     1.6365   1.7484   1.9597   2.1733   2.2035   2.2618   2.6751   3.1238
     3.2748   3.3758   3.4131   3.5324   3.7687   3.8119   4.0267   4.1479
     4.7958   5.2874   5.4457   5.7792   5.8519   6.5061   6.5229   6.7839
     7.3258   7.5264

          k = 0.5081 0.1290 0.1485 ( 36476 PWs)   bands (ev):

   -44.1717 -44.1717 -22.3178 -22.3178 -22.2479 -22.2479 -22.0876 -22.0876
    -7.1604  -6.9569  -6.5948  -6.5555  -6.1491  -5.4786  -4.9455  -4.7775
    -4.7135  -4.4367   0.4811   0.7770   0.9743   1.1000   1.1818   1.4099
     1.4634   1.6867   2.0408   2.0583   2.3448   2.6046   2.9279   3.1707
     3.2588   3.3759   3.4537   3.5574   3.5990   3.8321   3.8524   4.2070
     4.4690   4.6501   5.9412   6.0095   6.2262   6.5239   6.5628   6.6849
     7.1818   7.4768

          k = 0.5081 0.1290-0.2971 ( 36466 PWs)   bands (ev):

   -44.1717 -44.1717 -22.3178 -22.3178 -22.2479 -22.2479 -22.0876 -22.0876
    -7.0709  -7.0709  -6.5922  -6.5922  -5.8272  -5.8272  -4.8477  -4.8477
    -4.5446  -4.5446   0.6220   0.6220   1.1088   1.1088   1.2675   1.2675
     1.3676   1.3676   2.0582   2.0582   2.8252   2.8252   3.0626   3.0626
     3.2759   3.2759   3.5253   3.5253   3.7260   3.7260   3.8969   3.8969
     4.3009   4.3009   6.1600   6.1600   6.5203   6.5203   6.7486   6.7486
     7.0895   7.0895

          k = 0.7622 0.1934 0.0000 ( 36521 PWs)   bands (ev):

   -44.1708 -44.1708 -22.3129 -22.3129 -22.2724 -22.2724 -22.0844 -22.0844
    -6.8150  -6.7100  -6.3257  -6.0970  -5.9603  -5.2770  -5.2418  -5.0326
    -4.6831  -4.6480  -0.0096   0.3670   0.6670   1.1721   1.1850   1.2142
     1.4767   1.5786   1.8936   1.9443   2.2398   2.5008   2.5749   2.6824
     2.7232   3.2432   3.2576   3.2984   3.6347   3.6539   3.7805   3.9337
     4.0615   4.5841   5.7343   6.1068   6.1804   6.5723   6.6562   6.7384
     7.1487   7.6327

          k = 0.7622 0.1934 0.1485 ( 36503 PWs)   bands (ev):

   -44.1708 -44.1708 -22.3129 -22.3129 -22.2724 -22.2724 -22.0844 -22.0844
    -6.7987  -6.7236  -6.3182  -6.1988  -5.8085  -5.3952  -5.1763  -5.0552
    -4.6708  -4.6474   0.0773   0.4595   0.5655   0.9651   1.1685   1.2148
     1.4925   1.5986   1.7534   2.0914   2.1283   2.6254   2.6569   2.8100
     2.8581   3.1922   3.2753   3.3507   3.4329   3.6722   3.7130   3.8543
     4.0371   4.9075   5.2414   6.1730   6.4786   6.5055   6.6454   6.8657
     6.9279   7.3959

          k = 0.7622 0.1934-0.2971 ( 36522 PWs)   bands (ev):

   -44.1708 -44.1708 -22.3129 -22.3129 -22.2724 -22.2724 -22.0844 -22.0844
    -6.7599  -6.7599  -6.2839  -6.2839  -5.5903  -5.5903  -5.1102  -5.1102
    -4.6531  -4.6531   0.2989   0.2989   0.7500   0.7500   1.0548   1.0548
     1.5696   1.5696   1.9435   1.9435   2.3861   2.3861   2.8013   2.8013
     2.9857   2.9857   3.4475   3.4475   3.5508   3.5508   3.7551   3.7551
     4.2602   4.2602   5.9176   5.9176   6.3248   6.3248   6.7267   6.7267
     7.2430   7.2430

          k =-1.0162-0.2579 0.0000 ( 36506 PWs)   bands (ev):

   -44.1704 -44.1704 -22.3107 -22.3107 -22.2827 -22.2827 -22.0831 -22.0831
    -6.6733  -6.6530  -5.7857  -5.7810  -5.5953  -5.5891  -5.5460  -5.5289
    -4.6237  -4.6106   0.1137   0.1425   0.4719   0.4879   1.0102   1.0159
     1.4716   1.6762   2.2050   2.2948   2.2988   2.3032   2.8154   2.8518
     2.8631   3.0104   3.2530   3.2588   3.3283   3.4687   3.5895   3.7104
     3.8516   3.9158   6.2774   6.3148   6.3816   6.4686   6.8896   6.9250
     6.9431   6.9463

          k =-1.0162-0.2579 0.1485 ( 36506 PWs)   bands (ev):

   -44.1704 -44.1704 -22.3107 -22.3107 -22.2827 -22.2827 -22.0831 -22.0831
    -6.6698  -6.6554  -5.7785  -5.7749  -5.6543  -5.6479  -5.4836  -5.4736
    -4.6300  -4.6208   0.0381   0.0483   0.6665   0.6681   1.0452   1.0738
     1.4564   1.5505   1.9258   1.9669   2.3361   2.3446   2.7749   2.7987
     2.9395   2.9706   3.2217   3.2590   3.4893   3.5554   3.6879   3.7433
     4.1554   4.1835   5.8077   5.8105   6.3222   6.3903   6.7612   6.8034
     7.1711   7.1866

          k =-1.0162-0.2579-0.2971 ( 36528 PWs)   bands (ev):

   -44.1704 -44.1704 -22.3107 -22.3107 -22.2827 -22.2827 -22.0831 -22.0831
    -6.6620  -6.6620  -5.7664  -5.7664  -5.6889  -5.6889  -5.4444  -5.4444
    -4.6339  -4.6339  -0.0107  -0.0107   0.8620   0.8620   1.1505   1.1505
     1.4007   1.4007   1.6660   1.6660   2.3409   2.3409   2.8029   2.8029
     2.9227   2.9227   3.2681   3.2681   3.5402   3.5402   3.7582   3.7582
     4.7817   4.7817   5.1155   5.1155   6.2965   6.2965   6.7878   6.7878
     7.2246   7.2246

          k = 0.5081 0.0000 0.0000 ( 36503 PWs)   bands (ev):

   -44.1717 -44.1717 -22.3178 -22.3178 -22.2479 -22.2479 -22.0876 -22.0876
    -7.1993  -6.9040  -6.5837  -6.4538  -6.3639  -5.1615  -5.1442  -4.8007
    -4.7525  -4.4035   0.4448   0.7621   0.8704   1.1062   1.3618   1.4479
     1.6442   1.7503   1.9702   2.1375   2.2104   2.2305   2.6851   3.1040
     3.2754   3.3750   3.4671   3.5666   3.7766   3.7972   4.0578   4.1864
     4.7982   5.2935   5.4572   5.8044   5.8333   6.4668   6.4715   6.8190
     7.3583   7.5342

          k = 0.5081 0.0000 0.1485 ( 36453 PWs)   bands (ev):

   -44.1717 -44.1717 -22.3178 -22.3178 -22.2479 -22.2479 -22.0876 -22.0876
    -7.1671  -6.9623  -6.5856  -6.5490  -6.1504  -5.4797  -4.9383  -4.7788
    -4.7154  -4.4374   0.4779   0.7719   0.9812   1.1021   1.1499   1.3936
     1.4596   1.6866   2.0411   2.0516   2.3370   2.5806   2.9186   3.1581
     3.2515   3.4058   3.4875   3.5882   3.5888   3.8535   3.8647   4.2413
     4.4852   4.6548   5.9470   6.0245   6.2274   6.4724   6.5289   6.7141
     7.2092   7.4789

          k = 0.5081 0.0000-0.2971 ( 36452 PWs)   bands (ev):

   -44.1717 -44.1717 -22.3178 -22.3178 -22.2479 -22.2479 -22.0876 -22.0876
    -7.0774  -7.0774  -6.5837  -6.5837  -5.8289  -5.8289  -4.8433  -4.8433
    -4.5471  -4.5471   0.6169   0.6169   1.1101   1.1101   1.2594   1.2594
     1.3528   1.3528   2.0566   2.0566   2.8153   2.8153   3.0353   3.0353
     3.2690   3.2690   3.5915   3.5915   3.7285   3.7285   3.9002   3.9002
     4.3276   4.3276   6.1748   6.1748   6.4877   6.4877   6.7612   6.7612
     7.0917   7.0917

          k = 0.7622 0.0645 0.0000 ( 36505 PWs)   bands (ev):

   -44.1708 -44.1708 -22.3129 -22.3129 -22.2724 -22.2724 -22.0844 -22.0844
    -6.8248  -6.7089  -6.3158  -6.0956  -5.9639  -5.2774  -5.2355  -5.0324
    -4.6790  -4.6536  -0.0167   0.3791   0.6945   1.1631   1.2180   1.2322
     1.4299   1.5343   1.8673   1.9514   2.1782   2.4898   2.5637   2.6689
     2.6830   3.2895   3.2978   3.3128   3.5819   3.6739   3.8412   3.9632
     4.0789   4.6300   5.7334   6.1158   6.1456   6.5349   6.6937   6.7135
     7.1770   7.6327

          k = 0.7622 0.0645 0.1485 ( 36509 PWs)   bands (ev):

   -44.1708 -44.1708 -22.3129 -22.3129 -22.2724 -22.2724 -22.0844 -22.0844
    -6.8075  -6.7247  -6.3088  -6.1956  -5.8117  -5.3959  -5.1711  -5.0541
    -4.6681  -4.6515   0.0726   0.4680   0.5749   0.9917   1.1900   1.2045
     1.4503   1.6087   1.7536   2.0301   2.0517   2.6187   2.6540   2.7785
     2.8561   3.1901   3.3467   3.3724   3.3967   3.6935   3.7498   3.8719
     4.0879   4.9067   5.2697   6.1611   6.4733   6.4840   6.6626   6.8682
     6.9156   7.4138

          k = 0.7622 0.0645-0.2971 ( 36472 PWs)   bands (ev):

   -44.1708 -44.1708 -22.3129 -22.3129 -22.2724 -22.2724 -22.0844 -22.0844
    -6.7654  -6.7654  -6.2767  -6.2767  -5.5928  -5.5928  -5.1069  -5.1069
    -4.6537  -4.6537   0.3001   0.3001   0.7476   0.7476   1.0818   1.0818
     1.5671   1.5671   1.8842   1.8842   2.3537   2.3537   2.7863   2.7863
     2.9875   2.9875   3.5135   3.5135   3.5546   3.5546   3.7517   3.7517
     4.2849   4.2849   5.9407   5.9407   6.3257   6.3257   6.6916   6.6916
     7.2686   7.2686

          k = 1.0162 0.1290 0.0000 ( 36514 PWs)   bands (ev):

   -44.1704 -44.1704 -22.3107 -22.3107 -22.2827 -22.2827 -22.0831 -22.0831
    -6.6733  -6.6530  -5.7852  -5.7815  -5.5960  -5.5884  -5.5460  -5.5288
    -4.6237  -4.6106   0.1081   0.1482   0.4652   0.4947   1.0052   1.0231
     1.4763   1.6676   2.2101   2.2756   2.2960   2.3067   2.8201   2.8552
     2.8892   3.0032   3.2157   3.2890   3.3355   3.4693   3.5743   3.7140
     3.8623   3.9030   6.2798   6.3144   6.3769   6.4735   6.8955   6.9284
     6.9417   6.9486

          k = 1.0162 0.1290 0.1485 ( 36524 PWs)   bands (ev):

   -44.1704 -44.1704 -22.3107 -22.3107 -22.2827 -22.2827 -22.0831 -22.0831
    -6.6698  -6.6554  -5.7780  -5.7753  -5.6548  -5.6475  -5.4837  -5.4735
    -4.6300  -4.6208   0.0362   0.0498   0.6632   0.6720   1.0498   1.0708
     1.4599   1.5500   1.9179   1.9681   2.3276   2.3403   2.7384   2.8455
     2.9617   2.9782   3.1968   3.2609   3.4911   3.5822   3.6797   3.7145
     4.1626   4.1816   5.7945   5.8254   6.3197   6.3927   6.7678   6.8032
     7.1734   7.1843

          k = 1.0162 0.1290-0.2971 ( 36516 PWs)   bands (ev):

   -44.1704 -44.1704 -22.3107 -22.3107 -22.2827 -22.2827 -22.0831 -22.0831
    -6.6620  -6.6620  -5.7664  -5.7664  -5.6890  -5.6890  -5.4444  -5.4444
    -4.6339  -4.6339  -0.0109  -0.0109   0.8613   0.8613   1.1545   1.1545
     1.3986   1.3986   1.6664   1.6664   2.3304   2.3304   2.7856   2.7856
     2.9677   2.9677   3.2503   3.2503   3.5478   3.5478   3.7484   3.7484
     4.7818   4.7818   5.1173   5.1173   6.2963   6.2963   6.7906   6.7906
     7.2243   7.2243

          k =-0.7622-0.3224 0.0000 ( 36511 PWs)   bands (ev):

   -44.1708 -44.1708 -22.3129 -22.3129 -22.2724 -22.2724 -22.0844 -22.0844
    -6.7993  -6.7133  -6.3397  -6.0992  -5.9553  -5.2766  -5.2508  -5.0328
    -4.6867  -4.6423   0.0007   0.3504   0.6307   1.1610   1.1843   1.1939
     1.4972   1.6521   1.9364   1.9410   2.3320   2.5177   2.5937   2.7073
     2.7649   3.1467   3.2175   3.3331   3.6091   3.6493   3.7335   3.8899
     4.0357   4.5119   5.7362   6.1108   6.2190   6.5751   6.6291   6.8062
     7.1042   7.6363

          k =-0.7622-0.3224 0.1485 ( 36492 PWs)   bands (ev):

   -44.1708 -44.1708 -22.3129 -22.3129 -22.2724 -22.2724 -22.0844 -22.0844
    -6.7848  -6.7232  -6.3317  -6.2036  -5.8039  -5.3942  -5.1835  -5.0566
    -4.6731  -4.6433   0.0835   0.4491   0.5502   0.9373   1.1470   1.2230
     1.5517   1.5885   1.7406   2.1853   2.2420   2.6344   2.6673   2.8385
     2.8650   3.1722   3.2185   3.3310   3.4678   3.6200   3.6771   3.8216
     3.9543   4.9077   5.2034   6.1929   6.4654   6.5281   6.6436   6.8801
     6.9408   7.3660

          k =-0.7622-0.3224-0.2971 ( 36508 PWs)   bands (ev):

   -44.1708 -44.1708 -22.3129 -22.3129 -22.2724 -22.2724 -22.0844 -22.0844
    -6.7517  -6.7517  -6.2944  -6.2944  -5.5868  -5.5868  -5.1149  -5.1149
    -4.6524  -4.6524   0.2967   0.2967   0.7535   0.7535   1.0244   1.0244
     1.5708   1.5708   2.0171   2.0171   2.4441   2.4441   2.8274   2.8274
     2.9818   2.9818   3.3550   3.3550   3.5537   3.5537   3.7391   3.7391
     4.2257   4.2257   5.8865   5.8865   6.3217   6.3217   6.7872   6.7872
     7.1994   7.1994

          k =-0.5081-0.2579 0.0000 ( 36480 PWs)   bands (ev):

   -44.1717 -44.1717 -22.3178 -22.3178 -22.2479 -22.2479 -22.0876 -22.0876
    -7.1752  -6.8912  -6.6128  -6.4747  -6.3582  -5.1585  -5.1579  -4.8083
    -4.7410  -4.4048   0.4552   0.7601   0.8467   1.2407   1.3743   1.5212
     1.6249   1.7420   1.9429   2.2173   2.2357   2.3067   2.6547   3.1781
     3.2776   3.2892   3.3844   3.4253   3.7393   3.8216   3.9822   4.0693
     4.7878   5.2753   5.4052   5.7277   5.8995   6.6024   6.6426   6.6995
     7.2470   7.5175

          k =-0.5081-0.2579 0.1485 ( 36485 PWs)   bands (ev):

   -44.1717 -44.1717 -22.3178 -22.3178 -22.2479 -22.2479 -22.0876 -22.0876
    -7.1431  -6.9435  -6.6163  -6.5732  -6.1460  -5.4760  -4.9618  -4.7760
    -4.7086  -4.4349   0.4894   0.7840   0.9592   1.0954   1.2706   1.4302
     1.4988   1.6809   2.0468   2.0719   2.3601   2.6612   2.9475   3.2044
     3.2647   3.2776   3.4269   3.4522   3.6097   3.7959   3.8324   4.1329
     4.4220   4.6394   5.9117   5.9892   6.2240   6.6133   6.6413   6.6549
     7.1140   7.4756

          k =-0.5081-0.2579-0.2971 ( 36478 PWs)   bands (ev):

   -44.1717 -44.1717 -22.3178 -22.3178 -22.2479 -22.2479 -22.0876 -22.0876
    -7.0543  -7.0543  -6.6137  -6.6137  -5.8233  -5.8233  -4.8581  -4.8581
    -4.5387  -4.5387   0.6336   0.6336   1.1043   1.1043   1.2756   1.2756
     1.4231   1.4231   2.0619   2.0619   2.8498   2.8498   3.1353   3.1353
     3.2912   3.2912   3.3703   3.3703   3.7096   3.7096   3.8890   3.8890
     4.2335   4.2335   6.1219   6.1219   6.5895   6.5895   6.7282   6.7282
     7.0872   7.0872

          k =-0.2541-0.1934 0.0000 ( 36410 PWs)   bands (ev):

   -44.1726 -44.1726 -22.3225 -22.3225 -22.2233 -22.2233 -22.0908 -22.0908
    -7.4969  -7.1151  -6.7386  -6.6565  -6.6345  -5.1826  -5.1785  -4.9147
    -4.8398  -3.9984   0.6166   0.8422   0.9719   1.1561   1.2376   1.5612
     1.9755   2.1753   2.2762   2.4597   2.5733   2.9970   3.4006   3.4721
     3.5492   3.6851   3.7401   3.8802   4.0552   4.0569   4.1447   4.2595
     4.3953   4.7596   5.6547   6.0329   6.3685   6.5469   6.6009   6.8358
     7.0116   7.0834

          k =-0.2541-0.1934 0.1485 ( 36427 PWs)   bands (ev):

   -44.1726 -44.1726 -22.3225 -22.3225 -22.2233 -22.2233 -22.0908 -22.0908
    -7.4603  -7.2066  -6.7483  -6.7333  -6.3900  -5.6072  -4.9690  -4.8605
    -4.6937  -4.0880   0.6253   0.8708   0.9974   1.0505   1.1486   1.6685
     1.8941   2.2429   2.4797   2.5662   2.6395   2.9141   3.2218   3.3222
     3.4455   3.6023   3.7781   3.8693   3.9566   4.0506   4.1498   4.2180
     4.7012   5.1111   5.7498   5.8085   6.1943   6.3146   6.5921   6.6702
     7.2416   7.2464

          k =-0.2541-0.1934-0.2971 ( 36422 PWs)   bands (ev):

   -44.1726 -44.1726 -22.3225 -22.3225 -22.2233 -22.2233 -22.0908 -22.0908
    -7.3554  -7.3554  -6.7493  -6.7493  -6.0258  -6.0258  -4.9105  -4.9105
    -4.3382  -4.3382   0.7339   0.7339   0.9786   0.9786   1.3674   1.3674
     2.2247   2.2247   2.5866   2.5866   2.8139   2.8139   3.1005   3.1005
     3.4487   3.4487   3.8015   3.8015   3.9677   3.9677   4.2025   4.2025
     5.2537   5.2537   5.7017   5.7017   6.0150   6.0150   6.5915   6.5915
     7.3971   7.3976

          k = 0.0000-0.1290 0.0000 ( 36417 PWs)   bands (ev):

   -44.1730 -44.1730 -22.3245 -22.3245 -22.2131 -22.2131 -22.0922 -22.0921
    -7.6167  -7.2154  -6.7754  -6.7325  -6.7021  -5.2039  -5.2030  -4.9526
    -4.8826  -3.8640   0.5233   0.6694   0.8289   1.0198   1.4810   1.6635
     2.3906   2.5332   2.5836   2.9941   3.0550   3.0718   3.2941   3.3861
     3.4328   3.4781   3.8253   4.0176   4.0246   4.2087   4.2582   4.6185
     5.3545   5.4982   5.5098   5.5311   5.9024   6.1470   6.5429   6.6962
     6.9301   7.4524

          k = 0.0000-0.1290 0.1485 ( 36419 PWs)   bands (ev):

   -44.1730 -44.1730 -22.3245 -22.3245 -22.2131 -22.2131 -22.0921 -22.0921
    -7.5792  -7.3156  -6.7902  -6.7765  -6.4741  -5.6641  -4.9861  -4.8994
    -4.6941  -3.9769   0.5461   0.7075   0.9115   1.0708   1.0955   2.1087
     2.1608   2.4099   2.5109   3.0539   3.0819   3.2023   3.2025   3.2824
     3.6284   3.6899   3.7593   3.9772   3.9781   4.2351   4.2733   4.6457
     5.0189   5.0612   5.6603   5.9196   6.0978   6.1318   6.5408   6.7764
     6.7949   7.4282

          k = 0.0000-0.1290-0.2971 ( 36464 PWs)   bands (ev):

   -44.1730 -44.1730 -22.3245 -22.3245 -22.2131 -22.2131 -22.0921 -22.0921
    -7.4712  -7.4712  -6.7886  -6.7886  -6.1020  -6.1020  -4.9400  -4.9400
    -4.2802  -4.2802   0.7122   0.7122   0.8238   0.8238   1.5339   1.5339
     2.4588   2.4588   2.7209   2.7209   3.1197   3.1197   3.2271   3.2271
     3.7838   3.7838   3.8401   3.8401   4.2234   4.2234   4.4516   4.4516
     4.7586   4.7586   5.9239   5.9239   6.3082   6.3082   6.3955   6.3955
     7.2215   7.2215

          k = 1.0162 0.0000 0.0000 ( 36499 PWs)   bands (ev):

   -44.1704 -44.1704 -22.3107 -22.3107 -22.2827 -22.2827 -22.0831 -22.0831
    -6.6733  -6.6530  -5.7844  -5.7822  -5.5966  -5.5878  -5.5460  -5.5288
    -4.6237  -4.6106   0.1038   0.1526   0.4608   0.4993   1.0030   1.0275
     1.4817   1.6583   2.2190   2.2539   2.2946   2.3089   2.8292   2.8428
     2.9337   2.9892   3.1984   3.2968   3.3452   3.4649   3.5625   3.7201
     3.8720   3.8885   6.2822   6.3138   6.3726   6.4782   6.9021   6.9317
     6.9396   6.9510

          k = 1.0162 0.0000 0.1485 ( 36485 PWs)   bands (ev):

   -44.1704 -44.1704 -22.3107 -22.3107 -22.2827 -22.2827 -22.0831 -22.0831
    -6.6698  -6.6554  -5.7774  -5.7759  -5.6553  -5.6471  -5.4838  -5.4734
    -4.6300  -4.6208   0.0346   0.0510   0.6617   0.6741   1.0574   1.0647
     1.4638   1.5492   1.9102   1.9689   2.3206   2.3353   2.7242   2.8618
     2.9735   3.0147   3.1621   3.2615   3.4936   3.6380   3.6561   3.6716
     4.1739   4.1753   5.7891   5.8327   6.3175   6.3949   6.7750   6.8024
     7.1781   7.1795

          k = 1.0162 0.0000-0.2971 ( 36514 PWs)   bands (ev):

   -44.1704 -44.1704 -22.3107 -22.3107 -22.2827 -22.2827 -22.0831 -22.0831
    -6.6620  -6.6620  -5.7664  -5.7664  -5.6890  -5.6890  -5.4444  -5.4444
    -4.6339  -4.6339  -0.0110  -0.0110   0.8607   0.8607   1.1586   1.1586
     1.3964   1.3964   1.6668   1.6668   2.3204   2.3204   2.7741   2.7741
     3.0112   3.0112   3.2279   3.2279   3.5559   3.5559   3.7380   3.7380
     4.7819   4.7819   5.1190   5.1190   6.2962   6.2962   6.7935   6.7935
     7.2239   7.2239

          k = 1.2703 0.0645 0.0000 ( 36468 PWs)   bands (ev):

   -44.1708 -44.1708 -22.3129 -22.3129 -22.2724 -22.2724 -22.0844 -22.0844
    -6.7859  -6.7176  -6.3497  -6.1008  -5.9516  -5.2763  -5.2572  -5.0329
    -4.6884  -4.6391   0.0081   0.3390   0.6064   1.1593   1.1741   1.1925
     1.4987   1.7060   1.9322   1.9784   2.3917   2.5481   2.6085   2.7262
     2.7865   3.0537   3.2151   3.4152   3.5341   3.5612   3.7803   3.8568
     4.0175   4.4534   5.7380   6.1201   6.2438   6.5182   6.6731   6.8601
     7.0662   7.5468

          k = 1.2703 0.0645 0.1485 ( 36490 PWs)   bands (ev):

   -44.1708 -44.1708 -22.3129 -22.3129 -22.2724 -22.2724 -22.0844 -22.0844
    -6.7732  -6.7243  -6.3414  -6.2072  -5.8006  -5.3936  -5.1886  -5.0577
    -4.6742  -4.6410   0.0876   0.4430   0.5379   0.9223   1.1349   1.2276
     1.5718   1.6210   1.7099   2.2619   2.3200   2.6414   2.6878   2.8522
     2.8692   3.0802   3.2695   3.3353   3.4347   3.5856   3.6967   3.7748
     3.8818   4.9070   5.1779   6.2109   6.4338   6.5461   6.6575   6.9010
     6.9490   7.3413

          k = 1.2703 0.0645-0.2971 ( 36480 PWs)   bands (ev):

   -44.1708 -44.1708 -22.3129 -22.3129 -22.2724 -22.2724 -22.0844 -22.0844
    -6.7457  -6.7457  -6.3020  -6.3020  -5.5843  -5.5843  -5.1182  -5.1182
    -4.6518  -4.6518   0.2948   0.2948   0.7558   0.7558   1.0071   1.0071
     1.5717   1.5717   2.0598   2.0598   2.4939   2.4939   2.8726   2.8726
     2.9631   2.9631   3.2766   3.2766   3.5706   3.5706   3.7112   3.7112
     4.2018   4.2018   5.8656   5.8656   6.3188   6.3188   6.8412   6.8412
     7.1597   7.1597

          k =-0.5081-0.3869 0.0000 ( 36463 PWs)   bands (ev):

   -44.1717 -44.1717 -22.3178 -22.3178 -22.2479 -22.2479 -22.0876 -22.0876
    -7.1560  -6.8834  -6.6317  -6.4919  -6.3542  -5.1687  -5.1554  -4.8105
    -4.7359  -4.4057   0.4648   0.7488   0.8315   1.3795   1.3813   1.5676
     1.6102   1.7517   1.9179   2.2451   2.2675   2.3360   2.6501   3.1603
     3.2396   3.2906   3.2962   3.4219   3.7056   3.7355   3.9645   4.0505
     4.7779   5.2659   5.3424   5.6918   5.9523   6.6146   6.7116   6.7554
     7.1583   7.5052

          k =-0.5081-0.3869 0.1485 ( 36477 PWs)   bands (ev):

   -44.1717 -44.1717 -22.3178 -22.3178 -22.2479 -22.2479 -22.0876 -22.0876
    -7.1240  -6.9297  -6.6364  -6.5945  -6.1429  -5.4734  -4.9767  -4.7760
    -4.7034  -4.4333   0.4988   0.7841   0.9459   1.0906   1.3942   1.4326
     1.5510   1.6635   2.0584   2.0895   2.3652   2.7128   2.9608   3.1364
     3.2504   3.2854   3.3270   3.4551   3.6122   3.7366   3.8111   4.0946
     4.3564   4.6300   5.8631   5.9894   6.2226   6.5496   6.7439   6.7671
     7.0342   7.4860

          k =-0.5081-0.3869-0.2971 ( 36492 PWs)   bands (ev):

   -44.1717 -44.1717 -22.3178 -22.3178 -22.2479 -22.2479 -22.0876 -22.0876
    -7.0359  -7.0359  -6.6370  -6.6370  -5.8193  -5.8193  -4.8681  -4.8681
    -4.5332  -4.5332   0.6444   0.6444   1.0980   1.0980   1.2748   1.2748
     1.5023   1.5023   2.0640   2.0640   2.8723   2.8723   3.2044   3.2044
     3.2275   3.2275   3.3192   3.3192   3.6692   3.6692   3.8837   3.8837
     4.1625   4.1625   6.0833   6.0833   6.6159   6.6159   6.7471   6.7471
     7.0912   7.0912

          k =-0.2541-0.3224 0.0000 ( 36485 PWs)   bands (ev):

   -44.1727 -44.1726 -22.3225 -22.3225 -22.2233 -22.2233 -22.0908 -22.0908
    -7.4782  -7.0956  -6.7616  -6.6864  -6.6305  -5.1938  -5.1753  -4.9194
    -4.8328  -3.9998   0.6444   0.9734   0.9871   1.2049   1.3105   1.5610
     2.0063   2.1797   2.3063   2.3719   2.5083   3.1206   3.2246   3.2856
     3.4951   3.7078   3.7619   3.8752   4.0168   4.0333   4.0808   4.2207
     4.3847   4.6887   5.7271   6.0432   6.3891   6.4818   6.6825   6.8740
     6.9783   7.0175

          k =-0.2541-0.3224 0.1485 ( 36445 PWs)   bands (ev):

   -44.1726 -44.1726 -22.3225 -22.3225 -22.2233 -22.2233 -22.0908 -22.0908
    -7.4414  -7.1864  -6.7748  -6.7572  -6.3896  -5.6040  -4.9900  -4.8585
    -4.6852  -4.0875   0.6444   0.9336   1.0979   1.1150   1.1958   1.6930
     1.8978   2.2388   2.3943   2.5192   2.6710   2.9362   3.2069   3.2705
     3.3142   3.4933   3.8145   3.8714   3.9467   4.0232   4.0757   4.1416
     4.6902   5.0704   5.7630   5.7991   6.1763   6.2822   6.6958   6.7230
     7.1823   7.2405

          k =-0.2541-0.3224-0.2971 ( 36442 PWs)   bands (ev):

   -44.1726 -44.1726 -22.3225 -22.3225 -22.2233 -22.2233 -22.0908 -22.0908
    -7.3359  -7.3359  -6.7757  -6.7757  -6.0224  -6.0224  -4.9203  -4.9203
    -4.3337  -4.3337   0.7425   0.7425   1.1154   1.1154   1.3824   1.3824
     2.2166   2.2166   2.5089   2.5089   2.8366   2.8366   3.1544   3.1544
     3.2756   3.2756   3.8004   3.8004   3.9727   3.9727   4.1198   4.1198
     5.2329   5.2329   5.6686   5.6686   5.9818   5.9818   6.6974   6.6974
     7.3691   7.3691

          k = 0.0000-0.2579 0.0000 ( 36445 PWs)   bands (ev):

   -44.1730 -44.1730 -22.3245 -22.3245 -22.2131 -22.2131 -22.0922 -22.0921
    -7.6001  -7.1961  -6.7989  -6.7295  -6.7289  -5.2137  -5.2002  -4.9598
    -4.8741  -3.8656   0.5768   0.7891   0.8444   1.0542   1.5340   1.6861
     2.4012   2.5507   2.5663   3.0337   3.0555   3.1524   3.1535   3.2331
     3.2877   3.4528   3.7992   4.0138   4.0174   4.0652   4.1373   4.6243
     5.3399   5.4225   5.5267   5.5978   5.9290   6.2005   6.6056   6.6420
     6.9329   7.3684

          k = 0.0000-0.2579 0.1485 ( 36452 PWs)   bands (ev):

   -44.1730 -44.1730 -22.3245 -22.3245 -22.2131 -22.2131 -22.0921 -22.0921
    -7.5625  -7.2971  -6.8158  -6.7963  -6.4755  -5.6612  -5.0073  -4.8961
    -4.6861  -3.9767   0.5848   0.8190   0.9816   1.0980   1.1153   2.1322
     2.1921   2.4213   2.5271   3.0327   3.0658   3.0865   3.1406   3.1892
     3.6113   3.6663   3.7080   3.9380   3.9739   4.1177   4.1675   4.6515
     5.0191   5.0356   5.6812   5.9233   6.1072   6.1242   6.5132   6.7790
     6.8853   7.2539

          k = 0.0000-0.2579-0.2971 ( 36454 PWs)   bands (ev):

   -44.1730 -44.1730 -22.3245 -22.3245 -22.2131 -22.2131 -22.0921 -22.0921
    -7.4539  -7.4539  -6.8126  -6.8126  -6.0994  -6.0994  -4.9489  -4.9489
    -4.2762  -4.2762   0.7504   0.7504   0.9099   0.9099   1.5599   1.5599
     2.4724   2.4724   2.7339   2.7339   3.0728   3.0728   3.1043   3.1043
     3.7722   3.7722   3.8299   3.8299   4.0882   4.0882   4.4457   4.4457
     4.7632   4.7632   5.8819   5.8819   6.3389   6.3389   6.3981   6.3981
     7.2182   7.2183

          k = 1.5243 0.0000 0.0000 ( 36439 PWs)   bands (ev):

   -44.1717 -44.1717 -22.3178 -22.3178 -22.2479 -22.2479 -22.0876 -22.0876
    -7.1474  -6.8808  -6.6388  -6.4998  -6.3525  -5.1730  -5.1543  -4.8110
    -4.7343  -4.4061   0.4695   0.7420   0.8255   1.3838   1.4901   1.5361
     1.6053   1.7703   1.9010   2.2604   2.2684   2.3436   2.6582   3.1023
     3.2371   3.2615   3.3008   3.4834   3.6366   3.6937   3.9603   4.0628
     4.7735   5.2625   5.3093   5.6814   5.9763   6.5786   6.7767   6.7894
     7.1138   7.5038

          k = 1.5243 0.0000 0.1485 ( 36476 PWs)   bands (ev):

   -44.1717 -44.1717 -22.3178 -22.3178 -22.2479 -22.2479 -22.0876 -22.0876
    -7.1154  -6.9239  -6.6439  -6.6049  -6.1415  -5.4723  -4.9826  -4.7764
    -4.7012  -4.4326   0.5030   0.7821   0.9408   1.0886   1.4310   1.5050
     1.5178   1.6616   2.0639   2.1013   2.3616   2.7284   2.9702   3.0794
     3.2416   3.2898   3.2992   3.5315   3.5589   3.6971   3.8012   4.0999
     4.3186   4.6266   5.8404   5.9926   6.2223   6.5231   6.7916   6.8226
     6.9873   7.4984

          k = 1.5243 0.0000-0.2971 ( 36508 PWs)   bands (ev):

   -44.1717 -44.1717 -22.3178 -22.3178 -22.2479 -22.2479 -22.0876 -22.0876
    -7.0277  -7.0277  -6.6472  -6.6472  -5.8176  -5.8176  -4.8723  -4.8723
    -4.5310  -4.5310   0.6487   0.6487   1.0949   1.0949   1.2734   1.2734
     1.5421   1.5421   2.0636   2.0636   2.8790   2.8790   3.1426   3.1426
     3.2680   3.2680   3.3354   3.3354   3.6376   3.6376   3.8828   3.8828
     4.1323   4.1323   6.0676   6.0676   6.6117   6.6117   6.7679   6.7679
     7.0957   7.0957

          k =-0.2541-0.4514 0.0000 ( 36444 PWs)   bands (ev):

   -44.1727 -44.1726 -22.3225 -22.3225 -22.2233 -22.2233 -22.0908 -22.0908
    -7.4639  -7.0813  -6.7741  -6.7128  -6.6276  -5.2020  -5.1731  -4.9207
    -4.8296  -4.0009   0.6512   0.9985   1.0792   1.2554   1.4017   1.5590
     2.0445   2.1671   2.2720   2.3315   2.4212   3.1050   3.1693   3.2345
     3.4888   3.7060   3.7395   3.8566   3.9559   4.0362   4.0534   4.1949
     4.4308   4.6102   5.7869   6.0485   6.3988   6.4301   6.7286   6.9051
     6.9166   7.0110

          k =-0.2541-0.4514 0.1485 ( 36461 PWs)   bands (ev):

   -44.1727 -44.1726 -22.3225 -22.3225 -22.2233 -22.2233 -22.0908 -22.0908
    -7.4270  -7.1708  -6.7907  -6.7793  -6.3890  -5.6017  -5.0035  -4.8583
    -4.6795  -4.0872   0.6473   0.9552   1.1273   1.2372   1.2825   1.7125
     1.9093   2.2142   2.2912   2.4586   2.6942   2.9324   3.1544   3.1699
     3.3482   3.4811   3.8194   3.8428   3.9451   3.9910   4.0495   4.0886
     4.6961   5.0363   5.7720   5.7984   6.1829   6.2266   6.7510   6.7689
     7.1454   7.2371

          k =-0.2541-0.4514-0.2971 ( 36490 PWs)   bands (ev):

   -44.1727 -44.1727 -22.3225 -22.3225 -22.2233 -22.2233 -22.0908 -22.0908
    -7.3209  -7.3209  -6.7955  -6.7955  -6.0198  -6.0198  -4.9273  -4.9273
    -4.3305  -4.3305   0.7421   0.7421   1.2434   1.2434   1.3995   1.3995
     2.1919   2.1919   2.4313   2.4313   2.8500   2.8500   3.1417   3.1417
     3.2271   3.2271   3.7866   3.7866   3.9857   3.9857   4.0629   4.0629
     5.2205   5.2205   5.6515   5.6515   5.9531   5.9531   6.7614   6.7614
     7.3474   7.3474

          k = 0.0000-0.3869 0.0000 ( 36477 PWs)   bands (ev):

   -44.1730 -44.1730 -22.3245 -22.3245 -22.2131 -22.2131 -22.0921 -22.0921
    -7.5825  -7.1754  -6.8184  -6.7635  -6.7252  -5.2242  -5.1974  -4.9631
    -4.8690  -3.8672   0.6001   0.8604   0.9525   1.1235   1.5992   1.7071
     2.4122   2.5185   2.5693   2.8601   3.0324   3.0382   3.0938   3.2814
     3.2875   3.4269   3.8360   3.8830   3.9991   4.0040   4.0169   4.6303
     5.3257   5.3795   5.5436   5.6747   5.9571   6.2294   6.5007   6.7156
     6.9355   7.2929

          k = 0.0000-0.3869 0.1485 ( 36452 PWs)   bands (ev):

   -44.1730 -44.1730 -22.3245 -22.3245 -22.2131 -22.2131 -22.0921 -22.0921
    -7.5446  -7.2770  -6.8403  -6.8202  -6.4764  -5.6583  -5.0259  -4.8952
    -4.6786  -3.9764   0.5947   0.9432   1.0891   1.1064   1.1953   2.1620
     2.2080   2.4331   2.5445   2.8085   2.8421   3.0489   3.1753   3.2430
     3.5945   3.6409   3.7061   3.9131   3.9705   4.0032   4.0657   4.6575
     5.0191   5.0222   5.7115   5.9277   6.0818   6.1282   6.4824   6.7815
     6.9512   7.2093

          k = 0.0000-0.3869-0.2971 ( 36454 PWs)   bands (ev):

   -44.1730 -44.1730 -22.3245 -22.3245 -22.2131 -22.2131 -22.0921 -22.0921
    -7.4353  -7.4353  -6.8380  -6.8380  -6.0966  -6.0966  -4.9578  -4.9578
    -4.2723  -4.2723   0.7463   0.7463   1.0700   1.0700   1.5887   1.5887
     2.4867   2.4867   2.6534   2.6534   2.9569   2.9569   3.0883   3.0883
     3.7726   3.7726   3.8197   3.8197   3.9906   3.9906   4.4342   4.4342
     4.7678   4.7678   5.8412   5.8412   6.3551   6.3551   6.4011   6.4011
     7.1918   7.1918

          k =-2.0325 0.0000 0.0000 ( 36452 PWs)   bands (ev):

   -44.1730 -44.1730 -22.3245 -22.3245 -22.2131 -22.2131 -22.0921 -22.0921
    -7.5748  -7.1665  -6.8233  -6.7814  -6.7237  -5.2286  -5.1963  -4.9637
    -4.8676  -3.8679   0.6023   0.8672   1.0543   1.1409   1.6411   1.7153
     2.4169   2.4809   2.5775   2.7150   2.9604   3.0307   3.1265   3.2788
     3.3740   3.4160   3.7763   3.8708   3.9424   3.9809   4.0167   4.6329
     5.3200   5.3674   5.5507   5.7116   5.9694   6.2376   6.4512   6.7408
     6.9364   7.2540

          k =-2.0325 0.0000 0.1485 ( 36456 PWs)   bands (ev):

   -44.1730 -44.1730 -22.3245 -22.3245 -22.2131 -22.2131 -22.0921 -22.0921
    -7.5369  -7.2681  -6.8499  -6.8317  -6.4766  -5.6571  -5.0330  -4.8952
    -4.6757  -3.9764   0.5933   0.9913   1.1039   1.1486   1.2585   2.1738
     2.2094   2.4382   2.5520   2.6693   2.7539   3.0416   3.1693   3.3094
     3.5876   3.6181   3.7132   3.8809   3.9653   3.9691   4.0340   4.6601
     5.0191   5.0193   5.7278   5.9297   6.0603   6.1331   6.4697   6.7825
     6.9732   7.1915

          k =-2.0325 0.0000-0.2971 ( 36460 PWs)   bands (ev):

   -44.1730 -44.1730 -22.3245 -22.3245 -22.2131 -22.2131 -22.0921 -22.0921
    -7.4271  -7.4271  -6.8489  -6.8489  -6.0954  -6.0954  -4.9615  -4.9615
    -4.2707  -4.2707   0.7419   0.7419   1.1540   1.1540   1.6028   1.6028
     2.4929   2.4929   2.5610   2.5610   2.9513   2.9513   3.0814   3.0814
     3.7628   3.7628   3.8155   3.8155   3.9648   3.9648   4.4301   4.4301
     4.7697   4.7697   5.8235   5.8235   6.3594   6.3594   6.4023   6.4023
     7.1780   7.1780

     the Fermi energy is     5.2558 ev

!    total energy              =   -4240.92327204 Ry

     total all-electron energy =   -150287.616967 Ry
     estimated scf accuracy    <          3.3E-11 Ry
     smearing contrib. (-TS)   =      -0.00007439 Ry
     internal energy E=F+TS    =   -4240.92319765 Ry

     The total energy is F=E-TS. E is the sum of the following terms:
     one-electron contribution =    -163.96147008 Ry
     hartree contribution      =     115.43024205 Ry
     xc contribution           =    -201.39247823 Ry
     ewald contribution        =    -223.49179994 Ry
     one-center paw contrib.   =   -3767.50769145 Ry

     convergence has been achieved in  19 iterations

     Forces acting on atoms (cartesian axes, Ry/au):

     atom    1 type  1   force =    -0.00000000   -0.02994703    0.00000000
     atom    2 type  1   force =     0.00000000    0.02994703    0.00000000
     atom    3 type  2   force =     0.00000000    0.00216581    0.00000000
     atom    4 type  2   force =     0.00000000   -0.00216581    0.00000000
     atom    5 type  2   force =     0.00000000    0.00661275   -0.00129255
     atom    6 type  2   force =     0.00000000   -0.00661275    0.00129255
     atom    7 type  2   force =     0.00000000    0.00661275    0.00129255
     atom    8 type  2   force =     0.00000000   -0.00661275   -0.00129255
     atom    9 type  2   force =     0.00000000    0.01962596    0.01084772
     atom   10 type  2   force =     0.00000000   -0.01962596   -0.01084772
     atom   11 type  2   force =     0.00000000    0.01962596   -0.01084772
     atom   12 type  2   force =     0.00000000   -0.01962596    0.01084772

     Total force =     0.063214     Total SCF correction =     0.000008


     Computing stress (Cartesian axis) and pressure

          total   stress  (Ry/bohr**3)                   (kbar)     P=       -5.17
  -0.00002130   0.00000000   0.00000000           -3.13        0.00        0.00
   0.00000000  -0.00003301   0.00000000            0.00       -4.86        0.00
   0.00000000   0.00000000  -0.00005120            0.00        0.00       -7.53

 
     init_run     :     34.01s CPU     34.61s WALL (       1 calls)
     electrons    :   1420.28s CPU   1434.70s WALL (       1 calls)
     forces       :      6.82s CPU      7.06s WALL (       1 calls)
     stress       :     41.35s CPU     42.00s WALL (       1 calls)

     Called by init_run:
     wfcinit      :     29.22s CPU     29.51s WALL (       1 calls)
     potinit      :      1.59s CPU      1.65s WALL (       1 calls)
     hinit0       :      1.61s CPU      1.62s WALL (       1 calls)

     Called by electrons:
     c_bands      :   1170.08s CPU   1175.77s WALL (      20 calls)
     sum_band     :    219.88s CPU    224.61s WALL (      20 calls)
     v_of_rho     :      7.62s CPU      8.19s WALL (      20 calls)
     newd         :     16.00s CPU     19.62s WALL (      20 calls)
     PAW_pot      :      6.44s CPU      6.44s WALL (      20 calls)
     mix_rho      :      1.26s CPU      1.29s WALL (      20 calls)

     Called by c_bands:
     init_us_2    :     12.34s CPU     12.38s WALL (    2709 calls)
     cegterg      :   1087.67s CPU   1093.15s WALL (    1260 calls)

     Called by *egterg:
     cdiaghg      :     29.49s CPU     29.59s WALL (    8846 calls)
     h_psi        :    921.76s CPU    927.15s WALL (    8972 calls)
     s_psi        :     48.03s CPU     48.09s WALL (    8972 calls)
     g_psi        :      2.07s CPU      2.08s WALL (    7649 calls)

     Called by h_psi:
     h_psi:calbec :     41.95s CPU     42.02s WALL (    8972 calls)
     vloc_psi     :    828.69s CPU    833.86s WALL (    8972 calls)
     add_vuspsi   :     47.79s CPU     47.86s WALL (    8972 calls)

     General routines
     calbec       :     54.97s CPU     55.07s WALL (   10547 calls)
     fft          :      6.45s CPU      6.63s WALL (     284 calls)
     ffts         :      0.16s CPU      0.16s WALL (      40 calls)
     fftw         :    813.67s CPU    818.60s WALL (  457228 calls)
     interpolate  :      0.56s CPU      0.57s WALL (      20 calls)
 
     Parallel routines
     fft_scatt_xy :    215.79s CPU    217.14s WALL (  457552 calls)
     fft_scatt_yz :    151.54s CPU    152.74s WALL (  457552 calls)
 
     PWSCF        :  25m 2.72s CPU  25m18.68s WALL

 
   This run was terminated on:  15:37:57  19Nov2021            

=------------------------------------------------------------------------------=
   JOB DONE.
=------------------------------------------------------------------------------=
