
     Program PWSCF v.6.7MaX starts on 19Nov2021 at 14:46:17 

     This program is part of the open-source Quantum ESPRESSO suite
     for quantum simulation of materials; please cite
         "P. Giannozzi et al., J. Phys.:Condens. Matter 21 395502 (2009);
         "P. Giannozzi et al., J. Phys.:Condens. Matter 29 465901 (2017);
          URL http://www.quantum-espresso.org", 
     in publications or presentations arising from this work. More details at
     http://www.quantum-espresso.org/quote

     Parallel version (MPI), running on    10 processors

     MPI processes distributed on     1 nodes
     R & G space division:  proc/nbgrp/npool/nimage =      10
     Waiting for input...
     Reading input from standard input

     Current dimensions of program PWSCF are:
     Max number of different atomic species (ntypx) = 10
     Max number of k-points (npk) =  40000
     Max angular momentum in pseudopotentials (lmaxx) =  3
     file Zr.pbe-spn-kjpaw_psl.1.0.0.UPF: wavefunction(s)  4S 4P renormalized
     file Te.pbe-n-kjpaw_psl.1.0.0.UPF: wavefunction(s)  5S 5P renormalized

     Subspace diagonalization in iterative solution of the eigenvalue problem:
     a serial algorithm will be used

     Message from routine setup:
     using ibrav=0 with symmetry is DISCOURAGED, use correct ibrav instead
 
     Parallelization info
     --------------------
     sticks:   dense  smooth     PW     G-vecs:    dense   smooth      PW
     Min         734     293     87               115340    29174    4753
     Max         735     295     88               115345    29176    4760
     Sum        7345    2937    873              1153415   291749   47557
 


     bravais-lattice index     =            0
     lattice parameter (alat)  =      15.5510  a.u.
     unit-cell volume          =    3018.5011 (a.u.)^3
     number of atoms/cell      =           12
     number of atomic types    =            2
     number of electrons       =        84.00
     number of Kohn-Sham states=           50
     kinetic-energy cutoff     =      80.0000  Ry
     charge density cutoff     =     800.0000  Ry
     scf convergence threshold =      1.0E-10
     mixing beta               =       0.7000
     number of iterations used =            8  plain     mixing
     Exchange-correlation= SLA  PW   PBX  PBC
                           (   1   4   3   4   0   0   0)

     celldm(1)=  15.551040  celldm(2)=   0.000000  celldm(3)=   0.000000
     celldm(4)=   0.000000  celldm(5)=   0.000000  celldm(6)=   0.000000

     crystal axes: (cart. coord. in units of alat)
               a(1) = (   0.246007  -0.969268   0.000000 )  
               a(2) = (   0.246007   0.969268   0.000000 )  
               a(3) = (   0.000000   0.000000   1.683031 )  

     reciprocal axes: (cart. coord. in units 2 pi/alat)
               b(1) = (  2.032465 -0.515853  0.000000 )  
               b(2) = (  2.032465  0.515853  0.000000 )  
               b(3) = (  0.000000  0.000000  0.594166 )  


     PseudoPot. # 1 for Zr read from file:
     pseudo/Zr.pbe-spn-kjpaw_psl.1.0.0.UPF
     MD5 check sum: 02112c41713a0468aff2bb39ef194e36
     Pseudo is Projector augmented-wave + core cor, Zval = 12.0
     Generated using &quot;atomic&quot; code by A. Dal Corso  v.6.2.2
     Shape of augmentation charge: PSQ
     Using radial grid of 1225 points,  6 beta functions with: 
                l(1) =   0
                l(2) =   0
                l(3) =   1
                l(4) =   1
                l(5) =   2
                l(6) =   2
     Q(r) pseudized with 0 coefficients 


     PseudoPot. # 2 for Te read from file:
     pseudo/Te.pbe-n-kjpaw_psl.1.0.0.UPF
     MD5 check sum: 66247bff2bd9dbf220fbb0bf5ab56e9d
     Pseudo is Projector augmented-wave + core cor, Zval =  6.0
     Generated using &quot;atomic&quot; code by A. Dal Corso  v.6.3
     Shape of augmentation charge: PSQ
     Using radial grid of 1245 points,  6 beta functions with: 
                l(1) =   0
                l(2) =   0
                l(3) =   1
                l(4) =   1
                l(5) =   2
                l(6) =   2
     Q(r) pseudized with 0 coefficients 


     atomic species   valence    mass     pseudopotential
        Zr            12.00    91.22000     Zr( 1.00)
        Te             6.00   127.60000     Te( 1.00)

      8 Sym. Ops., with inversion, found ( 4 have fractional translation)



   Cartesian axes

     site n.     atom                  positions (alat units)
         1           Zr  tau(   1) = (   0.0000000   0.6070306   0.4207578  )
         2           Zr  tau(   2) = (   0.2460067   0.3622375   1.2622733  )
         3           Te  tau(   3) = (   0.2460067   0.3342770   0.4207578  )
         4           Te  tau(   4) = (   0.0000000   0.6349911   1.2622733  )
         5           Te  tau(   5) = (   0.2460067   0.8091779   0.2516212  )
         6           Te  tau(   6) = (   0.0000000   0.1600902   1.4314099  )
         7           Te  tau(   7) = (   0.2460067   0.8091779   0.5898944  )
         8           Te  tau(   8) = (   0.0000000   0.1600902   1.0931367  )
         9           Te  tau(   9) = (   0.0000000   0.4123987   0.7285038  )
        10           Te  tau(  10) = (   0.2460067   0.5568694   0.9545273  )
        11           Te  tau(  11) = (   0.0000000   0.4123987   0.1130117  )
        12           Te  tau(  12) = (   0.2460067   0.5568694   1.5700193  )

     number of k points=    63  Methfessel-Paxton smearing, width (Ry)=  0.0030
                       cart. coord. in units 2pi/alat
        k(    1) = (   0.0000000   0.0000000   0.0000000), wk =   0.0078125
        k(    2) = (   0.0000000   0.0000000   0.1485415), wk =   0.0156250
        k(    3) = (   0.0000000   0.0000000  -0.2970830), wk =   0.0078125
        k(    4) = (   0.2540581   0.0644816   0.0000000), wk =   0.0312500
        k(    5) = (   0.2540581   0.0644816   0.1485415), wk =   0.0625000
        k(    6) = (   0.2540581   0.0644816  -0.2970830), wk =   0.0312500
        k(    7) = (   0.5081162   0.1289633   0.0000000), wk =   0.0312500
        k(    8) = (   0.5081162   0.1289633   0.1485415), wk =   0.0625000
        k(    9) = (   0.5081162   0.1289633  -0.2970830), wk =   0.0312500
        k(   10) = (   0.7621743   0.1934449   0.0000000), wk =   0.0312500
        k(   11) = (   0.7621743   0.1934449   0.1485415), wk =   0.0625000
        k(   12) = (   0.7621743   0.1934449  -0.2970830), wk =   0.0312500
        k(   13) = (  -1.0162324  -0.2579266   0.0000000), wk =   0.0156250
        k(   14) = (  -1.0162324  -0.2579266   0.1485415), wk =   0.0312500
        k(   15) = (  -1.0162324  -0.2579266  -0.2970830), wk =   0.0156250
        k(   16) = (   0.5081162   0.0000000   0.0000000), wk =   0.0156250
        k(   17) = (   0.5081162   0.0000000   0.1485415), wk =   0.0312500
        k(   18) = (   0.5081162   0.0000000  -0.2970830), wk =   0.0156250
        k(   19) = (   0.7621743   0.0644816   0.0000000), wk =   0.0312500
        k(   20) = (   0.7621743   0.0644816   0.1485415), wk =   0.0625000
        k(   21) = (   0.7621743   0.0644816  -0.2970830), wk =   0.0312500
        k(   22) = (   1.0162324   0.1289633   0.0000000), wk =   0.0312500
        k(   23) = (   1.0162324   0.1289633   0.1485415), wk =   0.0625000
        k(   24) = (   1.0162324   0.1289633  -0.2970830), wk =   0.0312500
        k(   25) = (  -0.7621743  -0.3224082   0.0000000), wk =   0.0312500
        k(   26) = (  -0.7621743  -0.3224082   0.1485415), wk =   0.0625000
        k(   27) = (  -0.7621743  -0.3224082  -0.2970830), wk =   0.0312500
        k(   28) = (  -0.5081162  -0.2579266   0.0000000), wk =   0.0312500
        k(   29) = (  -0.5081162  -0.2579266   0.1485415), wk =   0.0625000
        k(   30) = (  -0.5081162  -0.2579266  -0.2970830), wk =   0.0312500
        k(   31) = (  -0.2540581  -0.1934449   0.0000000), wk =   0.0312500
        k(   32) = (  -0.2540581  -0.1934449   0.1485415), wk =   0.0625000
        k(   33) = (  -0.2540581  -0.1934449  -0.2970830), wk =   0.0312500
        k(   34) = (   0.0000000  -0.1289633   0.0000000), wk =   0.0156250
        k(   35) = (   0.0000000  -0.1289633   0.1485415), wk =   0.0312500
        k(   36) = (   0.0000000  -0.1289633  -0.2970830), wk =   0.0156250
        k(   37) = (   1.0162324   0.0000000   0.0000000), wk =   0.0156250
        k(   38) = (   1.0162324   0.0000000   0.1485415), wk =   0.0312500
        k(   39) = (   1.0162324   0.0000000  -0.2970830), wk =   0.0156250
        k(   40) = (   1.2702905   0.0644816   0.0000000), wk =   0.0312500
        k(   41) = (   1.2702905   0.0644816   0.1485415), wk =   0.0625000
        k(   42) = (   1.2702905   0.0644816  -0.2970830), wk =   0.0312500
        k(   43) = (  -0.5081162  -0.3868899   0.0000000), wk =   0.0312500
        k(   44) = (  -0.5081162  -0.3868899   0.1485415), wk =   0.0625000
        k(   45) = (  -0.5081162  -0.3868899  -0.2970830), wk =   0.0312500
        k(   46) = (  -0.2540581  -0.3224082   0.0000000), wk =   0.0312500
        k(   47) = (  -0.2540581  -0.3224082   0.1485415), wk =   0.0625000
        k(   48) = (  -0.2540581  -0.3224082  -0.2970830), wk =   0.0312500
        k(   49) = (   0.0000000  -0.2579266   0.0000000), wk =   0.0156250
        k(   50) = (   0.0000000  -0.2579266   0.1485415), wk =   0.0312500
        k(   51) = (   0.0000000  -0.2579266  -0.2970830), wk =   0.0156250
        k(   52) = (   1.5243485   0.0000000   0.0000000), wk =   0.0156250
        k(   53) = (   1.5243485   0.0000000   0.1485415), wk =   0.0312500
        k(   54) = (   1.5243485   0.0000000  -0.2970830), wk =   0.0156250
        k(   55) = (  -0.2540581  -0.4513715   0.0000000), wk =   0.0312500
        k(   56) = (  -0.2540581  -0.4513715   0.1485415), wk =   0.0625000
        k(   57) = (  -0.2540581  -0.4513715  -0.2970830), wk =   0.0312500
        k(   58) = (   0.0000000  -0.3868899   0.0000000), wk =   0.0156250
        k(   59) = (   0.0000000  -0.3868899   0.1485415), wk =   0.0312500
        k(   60) = (   0.0000000  -0.3868899  -0.2970830), wk =   0.0156250
        k(   61) = (  -2.0324647   0.0000000   0.0000000), wk =   0.0078125
        k(   62) = (  -2.0324647   0.0000000   0.1485415), wk =   0.0156250
        k(   63) = (  -2.0324647   0.0000000  -0.2970830), wk =   0.0078125

     Dense  grid:  1153415 G-vectors     FFT dimensions: ( 144, 144, 240)

     Smooth grid:   291749 G-vectors     FFT dimensions: (  90,  90, 150)

     Estimated max dynamical RAM per process >     657.19 MB

     Estimated total dynamical RAM >       6.42 GB

     Initial potential from superposition of free atoms

     starting charge   83.99353, renormalised to   84.00000
     Starting wfcs are   66 randomized atomic wfcs
     Checking if some PAW data can be deallocated... 

     total cpu time spent up to now is       42.9 secs

     Self-consistent Calculation

     iteration #  1     ecut=    80.00 Ry     beta= 0.70
     Davidson diagonalization with overlap
     ethr =  1.00E-02,  avg # of iterations =  2.0

     Threshold (ethr) on eigenvalues was too large:
     Diagonalizing with lowered threshold

     Davidson diagonalization with overlap
     ethr =  4.05E-04,  avg # of iterations =  4.0

     total cpu time spent up to now is      200.2 secs

     total energy              =   -4240.73110806 Ry
     estimated scf accuracy    <       0.43219039 Ry

     iteration #  2     ecut=    80.00 Ry     beta= 0.70
     Davidson diagonalization with overlap
     ethr =  5.15E-04,  avg # of iterations =  7.8

     total cpu time spent up to now is      310.8 secs

     total energy              =   -4240.63746779 Ry
     estimated scf accuracy    <       2.08497344 Ry

     iteration #  3     ecut=    80.00 Ry     beta= 0.70
     Davidson diagonalization with overlap
     ethr =  5.15E-04,  avg # of iterations =  5.2

     total cpu time spent up to now is      405.0 secs

     total energy              =   -4240.93308752 Ry
     estimated scf accuracy    <       0.01384186 Ry

     iteration #  4     ecut=    80.00 Ry     beta= 0.70
     Davidson diagonalization with overlap
     c_bands:  2 eigenvalues not converged
     c_bands:  1 eigenvalues not converged
     c_bands:  2 eigenvalues not converged
     c_bands:  1 eigenvalues not converged
     c_bands:  1 eigenvalues not converged
     c_bands:  1 eigenvalues not converged
     c_bands:  1 eigenvalues not converged
     c_bands:  1 eigenvalues not converged
     c_bands:  1 eigenvalues not converged
     c_bands:  1 eigenvalues not converged
     c_bands:  1 eigenvalues not converged
     c_bands:  1 eigenvalues not converged
     c_bands:  1 eigenvalues not converged
     ethr =  1.65E-05,  avg # of iterations = 17.1

     total cpu time spent up to now is      581.8 secs

     total energy              =   -4240.94837916 Ry
     estimated scf accuracy    <       0.09011979 Ry

     iteration #  5     ecut=    80.00 Ry     beta= 0.70
     Davidson diagonalization with overlap
     ethr =  1.65E-05,  avg # of iterations =  6.7

     total cpu time spent up to now is      670.9 secs

     total energy              =   -4240.95028002 Ry
     estimated scf accuracy    <       0.01862491 Ry

     iteration #  6     ecut=    80.00 Ry     beta= 0.70
     Davidson diagonalization with overlap
     ethr =  1.65E-05,  avg # of iterations =  3.6

     total cpu time spent up to now is      746.9 secs

     total energy              =   -4240.95167081 Ry
     estimated scf accuracy    <       0.00196334 Ry

     iteration #  7     ecut=    80.00 Ry     beta= 0.70
     Davidson diagonalization with overlap
     c_bands:  1 eigenvalues not converged
     c_bands:  1 eigenvalues not converged
     c_bands:  1 eigenvalues not converged
     ethr =  2.34E-06,  avg # of iterations = 13.0

     total cpu time spent up to now is      874.8 secs

     total energy              =   -4240.95273122 Ry
     estimated scf accuracy    <       0.00227558 Ry

     iteration #  8     ecut=    80.00 Ry     beta= 0.70
     Davidson diagonalization with overlap
     ethr =  2.34E-06,  avg # of iterations =  2.3

     total cpu time spent up to now is      943.7 secs

     total energy              =   -4240.95276902 Ry
     estimated scf accuracy    <       0.00038613 Ry

     iteration #  9     ecut=    80.00 Ry     beta= 0.70
     Davidson diagonalization with overlap
     ethr =  4.60E-07,  avg # of iterations =  6.5

     total cpu time spent up to now is     1031.9 secs

     total energy              =   -4240.95288508 Ry
     estimated scf accuracy    <       0.00002869 Ry

     iteration # 10     ecut=    80.00 Ry     beta= 0.70
     Davidson diagonalization with overlap
     ethr =  3.42E-08,  avg # of iterations =  5.2

     total cpu time spent up to now is     1114.5 secs

     total energy              =   -4240.95288970 Ry
     estimated scf accuracy    <       0.00001099 Ry

     iteration # 11     ecut=    80.00 Ry     beta= 0.70
     Davidson diagonalization with overlap
     ethr =  1.31E-08,  avg # of iterations =  5.5

     total cpu time spent up to now is     1196.9 secs

     total energy              =   -4240.95289272 Ry
     estimated scf accuracy    <       0.00000050 Ry

     iteration # 12     ecut=    80.00 Ry     beta= 0.70
     Davidson diagonalization with overlap
     ethr =  5.97E-10,  avg # of iterations =  5.9

     total cpu time spent up to now is     1288.1 secs

     total energy              =   -4240.95289295 Ry
     estimated scf accuracy    <          5.3E-09 Ry

     iteration # 13     ecut=    80.00 Ry     beta= 0.70
     Davidson diagonalization with overlap
     ethr =  6.26E-12,  avg # of iterations = 10.2

     total cpu time spent up to now is     1425.6 secs

     total energy              =   -4240.95289296 Ry
     estimated scf accuracy    <          9.2E-09 Ry

     iteration # 14     ecut=    80.00 Ry     beta= 0.70
     Davidson diagonalization with overlap
     ethr =  6.26E-12,  avg # of iterations =  3.4

     total cpu time spent up to now is     1501.7 secs

     total energy              =   -4240.95289296 Ry
     estimated scf accuracy    <          2.2E-10 Ry

     iteration # 15     ecut=    80.00 Ry     beta= 0.70
     Davidson diagonalization with overlap
     ethr =  2.61E-13,  avg # of iterations =  9.4

     total cpu time spent up to now is     1620.2 secs

     total energy              =   -4240.95289296 Ry
     estimated scf accuracy    <          5.2E-10 Ry

     iteration # 16     ecut=    80.00 Ry     beta= 0.70
     Davidson diagonalization with overlap
     ethr =  2.61E-13,  avg # of iterations =  1.6

     total cpu time spent up to now is     1687.1 secs

     total energy              =   -4240.95289296 Ry
     estimated scf accuracy    <          2.2E-10 Ry

     iteration # 17     ecut=    80.00 Ry     beta= 0.70
     Davidson diagonalization with overlap
     ethr =  2.57E-13,  avg # of iterations =  5.2

     total cpu time spent up to now is     1762.1 secs

     End of self-consistent calculation

          k = 0.0000 0.0000 0.0000 ( 36359 PWs)   bands (ev):

   -44.1361 -44.1361 -22.2661 -22.2661 -22.1708 -22.1708 -22.0640 -22.0639
    -7.7929  -7.3639  -7.1348  -6.8377  -6.3687  -5.3976  -4.9807  -4.8549
    -4.8030  -3.8453   0.3693   0.7494   0.7502   1.1059   1.4908   1.5229
     2.3328   2.3679   2.7049   2.7135   2.9639   3.0130   3.2131   3.4424
     3.6608   3.7517   3.9387   4.0620   4.2147   4.3338   4.3371   4.6601
     4.9084   5.5170   5.6276   5.7766   5.8375   5.9675   6.2215   6.8336
     6.9687   7.2728

          k = 0.0000 0.0000 0.1485 ( 36415 PWs)   bands (ev):

   -44.1361 -44.1361 -22.2661 -22.2661 -22.1708 -22.1708 -22.0640 -22.0639
    -7.7562  -7.4896  -7.0229  -6.8535  -6.2858  -5.6795  -4.8596  -4.8122
    -4.6690  -3.9618   0.4300   0.7864   0.9026   1.0233   1.0681   1.9380
     2.0758   2.3615   2.5684   2.8306   2.9513   3.1223   3.3792   3.3942
     3.6883   3.8210   3.9236   4.0613   4.1562   4.3514   4.3559   4.6653
     4.8052   5.0118   5.7870   5.9687   5.9778   5.9906   6.5653   6.6291
     6.7932   7.2155

          k = 0.0000 0.0000-0.2971 ( 36410 PWs)   bands (ev):

   -44.1361 -44.1361 -22.2661 -22.2661 -22.1708 -22.1708 -22.0639 -22.0639
    -7.6497  -7.6497  -6.9087  -6.9087  -6.0388  -6.0388  -4.8347  -4.8347
    -4.2684  -4.2684   0.6389   0.6389   0.9089   0.9089   1.3750   1.3750
     2.4441   2.4441   2.6571   2.6571   2.9101   2.9101   3.4679   3.4679
     3.8779   3.8779   3.9920   3.9920   4.3447   4.3447   4.3940   4.3940
     4.6986   4.6986   5.9471   5.9471   6.2223   6.2223   6.4046   6.4046
     7.0388   7.0388

          k = 0.2541 0.0645 0.0000 ( 36396 PWs)   bands (ev):

   -44.1357 -44.1357 -22.2642 -22.2641 -22.1806 -22.1806 -22.0628 -22.0627
    -7.6763  -7.2537  -7.0617  -6.7904  -6.3069  -5.3543  -4.9896  -4.8125
    -4.7596  -3.9935   0.4558   0.8786   0.8806   1.2237   1.3337   1.3802
     1.8676   1.8747   2.0972   2.5576   2.5856   3.1247   3.3482   3.7116
     3.7357   3.7641   3.7800   3.8088   4.0164   4.2483   4.2643   4.2725
     4.4848   4.6039   5.7863   5.9795   6.2344   6.5697   6.6075   6.7912
     7.0075   7.1638

          k = 0.2541 0.0645 0.1485 ( 36423 PWs)   bands (ev):

   -44.1357 -44.1357 -22.2642 -22.2641 -22.1806 -22.1806 -22.0628 -22.0627
    -7.6404  -7.3796  -6.9554  -6.8046  -6.2209  -5.6253  -4.8360  -4.7709
    -4.6821  -4.0866   0.5042   0.9178   0.9524   0.9701   1.1740   1.4878
     1.8011   2.1888   2.2998   2.5388   2.5678   2.9434   3.3166   3.3348
     3.5848   3.7474   3.9189   3.9243   4.0216   4.1362   4.2979   4.3252
     4.6821   4.9017   5.8308   5.9019   6.1834   6.2668   6.4357   6.7227
     7.2322   7.3058

          k = 0.2541 0.0645-0.2971 ( 36436 PWs)   bands (ev):

   -44.1357 -44.1357 -22.2641 -22.2641 -22.1806 -22.1806 -22.0628 -22.0628
    -7.5363  -7.5363  -6.8536  -6.8536  -5.9736  -5.9736  -4.7986  -4.7986
    -4.3406  -4.3406   0.6707   0.6707   1.0160   1.0160   1.2003   1.2003
     2.2091   2.2091   2.4766   2.4766   2.6744   2.6744   3.1646   3.1646
     3.6211   3.6211   3.9208   3.9208   4.0905   4.0905   4.3294   4.3294
     5.0677   5.0677   5.7698   5.7698   6.1301   6.1301   6.4470   6.4470
     7.4197   7.4197

          k = 0.5081 0.1290 0.0000 ( 36499 PWs)   bands (ev):

   -44.1348 -44.1348 -22.2594 -22.2594 -22.2042 -22.2042 -22.0599 -22.0599
    -7.3444  -6.9340  -6.8892  -6.6643  -6.1145  -5.2602  -5.0757  -4.7018
    -4.6528  -4.4375   0.4948   0.5868   0.6602   1.2235   1.2239   1.4737
     1.6835   1.6969   2.0122   2.0973   2.1675   2.2416   2.3920   3.3535
     3.4325   3.5022   3.5025   3.5913   3.7710   3.8902   3.9089   4.1705
     4.4618   5.1219   5.5287   6.0226   6.0457   6.5783   6.5942   6.9232
     7.4370   7.5654

          k = 0.5081 0.1290 0.1485 ( 36476 PWs)   bands (ev):

   -44.1348 -44.1348 -22.2594 -22.2594 -22.2042 -22.2042 -22.0599 -22.0599
    -7.3114  -7.0734  -6.7822  -6.6749  -6.0257  -5.4946  -4.8989  -4.6818
    -4.6614  -4.4673   0.4642   0.6669   0.7720   1.0289   1.2537   1.3987
     1.4620   1.5706   2.0231   2.0932   2.3366   2.4767   2.7989   3.3761
     3.4186   3.4405   3.5182   3.5813   3.6929   3.7483   3.8475   4.2265
     4.3326   4.5238   6.1122   6.1590   6.2881   6.5808   6.6365   6.7890
     7.2747   7.5022

          k = 0.5081 0.1290-0.2971 ( 36466 PWs)   bands (ev):

   -44.1348 -44.1348 -22.2594 -22.2594 -22.2042 -22.2042 -22.0599 -22.0599
    -7.2163  -7.2163  -6.7099  -6.7099  -5.7941  -5.7941  -4.7572  -4.7572
    -4.5570  -4.5570   0.5547   0.5547   1.0467   1.0467   1.1353   1.1353
     1.4055   1.4055   2.0584   2.0584   2.7218   2.7218   3.1506   3.1506
     3.3934   3.3934   3.5518   3.5518   3.7054   3.7054   3.8266   3.8266
     4.3083   4.3083   6.3537   6.3537   6.5540   6.5540   6.8170   6.8170
     7.1244   7.1244

          k = 0.7622 0.1934 0.0000 ( 36521 PWs)   bands (ev):

   -44.1339 -44.1339 -22.2546 -22.2546 -22.2277 -22.2277 -22.0571 -22.0570
    -6.9034  -6.7326  -6.4446  -6.4436  -5.8119  -5.3638  -5.2301  -5.0956
    -4.5782  -4.5423   0.0138   0.0963   0.5567   1.0407   1.0672   1.2614
     1.4803   1.6021   1.9530   2.0447   2.2545   2.3938   2.4112   2.7815
     2.8626   3.2645   3.3309   3.4276   3.6167   3.6986   3.6995   3.7916
     3.8744   4.5627   5.8631   6.2856   6.3486   6.8154   6.8163   6.9160
     7.2820   7.6066

          k = 0.7622 0.1934 0.1485 ( 36503 PWs)   bands (ev):

   -44.1339 -44.1339 -22.2546 -22.2546 -22.2277 -22.2277 -22.0571 -22.0570
    -6.8818  -6.7612  -6.4510  -6.4465  -5.7446  -5.4388  -5.1991  -5.1114
    -4.5691  -4.5444   0.0422   0.2437   0.4279   0.9258   1.0402   1.2238
     1.4940   1.6336   1.8582   2.0664   2.1333   2.6280   2.6914   2.8294
     2.8817   3.1003   3.2716   3.3910   3.5246   3.6205   3.6524   3.9285
     3.9749   4.5675   5.6085   6.3235   6.6272   6.7102   6.8749   6.9612
     7.0585   7.5556

          k = 0.7622 0.1934-0.2971 ( 36522 PWs)   bands (ev):

   -44.1339 -44.1339 -22.2546 -22.2546 -22.2277 -22.2277 -22.0571 -22.0571
    -6.8251  -6.8251  -6.4527  -6.4527  -5.5925  -5.5925  -5.1512  -5.1512
    -4.5534  -4.5534   0.1927   0.1927   0.5851   0.5851   1.0809   1.0809
     1.5694   1.5694   2.0108   2.0108   2.3715   2.3715   2.8118   2.8118
     2.9924   2.9924   3.3391   3.3391   3.5912   3.5912   3.8609   3.8609
     4.1117   4.1117   6.1026   6.1026   6.4299   6.4299   6.9495   6.9495
     7.3993   7.3993

          k =-1.0162-0.2579 0.0000 ( 36506 PWs)   bands (ev):

   -44.1336 -44.1335 -22.2525 -22.2525 -22.2376 -22.2376 -22.0559 -22.0559
    -6.7062  -6.6861  -5.9359  -5.9249  -5.8735  -5.8651  -5.3768  -5.3762
    -4.5211  -4.4970   0.0083   0.0318   0.3366   0.3578   1.0121   1.0213
     1.4679   1.6711   2.2346   2.3862   2.3935   2.4009   2.7940   2.8060
     2.8144   2.8594   3.2248   3.2619   3.3156   3.4311   3.5234   3.7374
     3.7393   4.0453   6.5038   6.5279   6.5438   6.6234   7.0031   7.0961
     7.1040   7.1185

          k =-1.0162-0.2579 0.1485 ( 36506 PWs)   bands (ev):

   -44.1336 -44.1335 -22.2525 -22.2525 -22.2376 -22.2376 -22.0559 -22.0559
    -6.7025  -6.6882  -5.9550  -5.9468  -5.8533  -5.8479  -5.3727  -5.3723
    -4.5214  -4.5044  -0.0882  -0.0808   0.5599   0.5667   1.0131   1.0323
     1.4646   1.5934   1.9700   2.0643   2.3766   2.3961   2.7141   2.7143
     2.9422   3.0178   3.1184   3.1961   3.5544   3.5725   3.6744   3.7532
     4.0349   4.1273   5.9779   5.9926   6.4648   6.5400   7.0626   7.0904
     7.3029   7.3456

          k =-1.0162-0.2579-0.2971 ( 36528 PWs)   bands (ev):

   -44.1336 -44.1336 -22.2525 -22.2525 -22.2376 -22.2376 -22.0559 -22.0559
    -6.6945  -6.6945  -5.9656  -5.9656  -5.8377  -5.8377  -5.3684  -5.3684
    -4.5167  -4.5167  -0.1476  -0.1476   0.8397   0.8397   0.9445   0.9445
     1.5366   1.5366   1.7107   1.7107   2.3763   2.3763   2.7721   2.7721
     2.9154   2.9154   3.1646   3.1646   3.6282   3.6282   3.7998   3.7998
     4.4134   4.4134   5.5056   5.5056   6.4207   6.4207   7.0998   7.0998
     7.3982   7.3982

          k = 0.5081 0.0000 0.0000 ( 36503 PWs)   bands (ev):

   -44.1348 -44.1348 -22.2594 -22.2594 -22.2042 -22.2042 -22.0599 -22.0599
    -7.3489  -6.9348  -6.8904  -6.6593  -6.1108  -5.2606  -5.0727  -4.6965
    -4.6592  -4.4370   0.5007   0.5909   0.6508   1.2003   1.2186   1.4510
     1.6878   1.6952   1.9983   2.1182   2.1457   2.2281   2.3899   3.3412
     3.4582   3.4664   3.5632   3.5931   3.7772   3.8942   3.9419   4.2076
     4.4638   5.1190   5.5345   6.0011   6.0813   6.5393   6.5430   6.9587
     7.4552   7.5781

          k = 0.5081 0.0000 0.1485 ( 36453 PWs)   bands (ev):

   -44.1348 -44.1348 -22.2594 -22.2594 -22.2042 -22.2042 -22.0599 -22.0599
    -7.3158  -7.0765  -6.7800  -6.6701  -6.0233  -5.4947  -4.8941  -4.6836
    -4.6612  -4.4683   0.4654   0.6622   0.7737   1.0312   1.2373   1.4143
     1.4187   1.5544   2.0197   2.1014   2.3534   2.4369   2.7941   3.3664
     3.4380   3.4664   3.4996   3.5893   3.6874   3.8180   3.8379   4.2649
     4.3455   4.5187   6.1075   6.1694   6.3045   6.5317   6.6000   6.8207
     7.2967   7.5098

          k = 0.5081 0.0000-0.2971 ( 36452 PWs)   bands (ev):

   -44.1348 -44.1348 -22.2594 -22.2594 -22.2042 -22.2042 -22.0599 -22.0599
    -7.2203  -7.2203  -6.7056  -6.7056  -5.7935  -5.7935  -4.7532  -4.7532
    -4.5599  -4.5599   0.5516   0.5516   1.0470   1.0470   1.1481   1.1481
     1.3657   1.3657   2.0601   2.0601   2.7129   2.7129   3.1375   3.1375
     3.3930   3.3930   3.5756   3.5756   3.7309   3.7309   3.8273   3.8273
     4.3298   4.3298   6.3695   6.3695   6.5182   6.5182   6.8339   6.8339
     7.1257   7.1257

          k = 0.7622 0.0645 0.0000 ( 36505 PWs)   bands (ev):

   -44.1339 -44.1339 -22.2546 -22.2546 -22.2277 -22.2277 -22.0571 -22.0570
    -6.9123  -6.7304  -6.4453  -6.4363  -5.8117  -5.3603  -5.2308  -5.0950
    -4.5694  -4.5521   0.0093   0.1069   0.5744   1.0552   1.0724   1.2756
     1.4419   1.5629   1.9258   2.0621   2.2569   2.3554   2.3752   2.7555
     2.8504   3.3153   3.3536   3.4540   3.6259   3.6297   3.7239   3.8271
     3.8916   4.5988   5.8609   6.2879   6.3309   6.7874   6.8730   6.8741
     7.2996   7.6186

          k = 0.7622 0.0645 0.1485 ( 36509 PWs)   bands (ev):

   -44.1339 -44.1339 -22.2546 -22.2546 -22.2277 -22.2277 -22.0571 -22.0570
    -6.8899  -6.7623  -6.4478  -6.4396  -5.7451  -5.4380  -5.1977  -5.1105
    -4.5630  -4.5514   0.0451   0.2458   0.4373   0.9304   1.0530   1.2393
     1.4601   1.6335   1.8856   1.9955   2.0629   2.6471   2.6742   2.8132
     2.8649   3.1028   3.3293   3.4009   3.5189   3.6208   3.6615   3.9506
     4.0068   4.5651   5.6342   6.3034   6.6369   6.7089   6.8896   6.9589
     7.0336   7.5747

          k = 0.7622 0.0645-0.2971 ( 36472 PWs)   bands (ev):

   -44.1339 -44.1339 -22.2546 -22.2546 -22.2277 -22.2277 -22.0571 -22.0571
    -6.8308  -6.8308  -6.4460  -6.4460  -5.5933  -5.5933  -5.1495  -5.1495
    -4.5537  -4.5537   0.1994   0.1994   0.5788   0.5788   1.1043   1.1043
     1.5629   1.5629   1.9615   1.9615   2.3443   2.3443   2.8122   2.8122
     2.9805   2.9805   3.4000   3.4000   3.5882   3.5882   3.8476   3.8476
     4.1326   4.1326   6.1278   6.1278   6.4308   6.4308   6.9166   6.9166
     7.4266   7.4266

          k = 1.0162 0.1290 0.0000 ( 36514 PWs)   bands (ev):

   -44.1336 -44.1335 -22.2525 -22.2525 -22.2376 -22.2376 -22.0559 -22.0559
    -6.7062  -6.6861  -5.9357  -5.9251  -5.8735  -5.8651  -5.3769  -5.3762
    -4.5211  -4.4970   0.0024   0.0378   0.3322   0.3624   1.0061   1.0287
     1.4737   1.6620   2.2347   2.3843   2.3844   2.4035   2.7900   2.8049
     2.8228   2.8758   3.2415   3.2448   3.3042   3.4205   3.5576   3.7177
     3.7254   4.0583   6.4944   6.5381   6.5388   6.6297   7.0199   7.0975
     7.1062   7.1074

          k = 1.0162 0.1290 0.1485 ( 36524 PWs)   bands (ev):

   -44.1336 -44.1335 -22.2525 -22.2525 -22.2376 -22.2376 -22.0559 -22.0559
    -6.7025  -6.6882  -5.9549  -5.9469  -5.8532  -5.8479  -5.3727  -5.3722
    -4.5214  -4.5044  -0.0903  -0.0790   0.5610   0.5662   1.0159   1.0300
     1.4697   1.5886   1.9818   2.0484   2.3746   2.3911   2.6707   2.7648
     2.9569   3.0297   3.1047   3.1894   3.5310   3.6092   3.6692   3.7413
     4.0166   4.1468   5.9696   6.0041   6.4617   6.5427   7.0686   7.0893
     7.3092   7.3398

          k = 1.0162 0.1290-0.2971 ( 36516 PWs)   bands (ev):

   -44.1336 -44.1336 -22.2525 -22.2525 -22.2376 -22.2376 -22.0559 -22.0559
    -6.6945  -6.6945  -5.9656  -5.9656  -5.8377  -5.8377  -5.3684  -5.3684
    -4.5167  -4.5167  -0.1478  -0.1478   0.8401   0.8401   0.9447   0.9447
     1.5374   1.5374   1.7116   1.7116   2.3670   2.3670   2.7564   2.7564
     2.9624   2.9624   3.1401   3.1401   3.6323   3.6323   3.7954   3.7954
     4.4138   4.4138   5.5079   5.5079   6.4202   6.4202   7.1015   7.1015
     7.3987   7.3987

          k =-0.7622-0.3224 0.0000 ( 36511 PWs)   bands (ev):

   -44.1339 -44.1339 -22.2546 -22.2546 -22.2277 -22.2277 -22.0571 -22.0570
    -6.8897  -6.7368  -6.4564  -6.4412  -5.8124  -5.3687  -5.2290  -5.0965
    -4.5852  -4.5339   0.0203   0.0818   0.5324   1.0099   1.0840   1.2436
     1.5028   1.6657   2.0091   2.0225   2.2842   2.4197   2.4427   2.8180
     2.8764   3.2002   3.3125   3.4337   3.5797   3.6629   3.6804   3.8332
     3.8507   4.5023   5.8665   6.2751   6.3911   6.7333   6.8607   6.9823
     7.2485   7.5928

          k =-0.7622-0.3224 0.1485 ( 36492 PWs)   bands (ev):

   -44.1339 -44.1339 -22.2546 -22.2546 -22.2277 -22.2277 -22.0571 -22.0570
    -6.8692  -6.7603  -6.4602  -6.4521  -5.7440  -5.4398  -5.2010  -5.1127
    -4.5739  -4.5385   0.0372   0.2423   0.4139   0.9131   1.0377   1.2027
     1.5326   1.6348   1.8393   2.1712   2.2202   2.6107   2.6972   2.8502
     2.8990   3.1187   3.2008   3.3766   3.4772   3.6109   3.6844   3.8832
     3.9373   4.5695   5.5743   6.3558   6.6014   6.7098   6.8481   7.0007
     7.0868   7.5196

          k =-0.7622-0.3224-0.2971 ( 36508 PWs)   bands (ev):

   -44.1339 -44.1339 -22.2546 -22.2546 -22.2277 -22.2277 -22.0571 -22.0571
    -6.8166  -6.8166  -6.4625  -6.4625  -5.5913  -5.5913  -5.1535  -5.1535
    -4.5530  -4.5530   0.1834   0.1834   0.5937   0.5937   1.0534   1.0534
     1.5775   1.5775   2.0658   2.0658   2.4295   2.4295   2.8125   2.8125
     3.0097   3.0097   3.2527   3.2527   3.5906   3.5906   3.8655   3.8655
     4.0905   4.0905   6.0697   6.0697   6.4274   6.4274   7.0043   7.0043
     7.3528   7.3528

          k =-0.5081-0.2579 0.0000 ( 36480 PWs)   bands (ev):

   -44.1348 -44.1348 -22.2594 -22.2594 -22.2042 -22.2042 -22.0599 -22.0599
    -7.3330  -6.9321  -6.8869  -6.6757  -6.1238  -5.2594  -5.0830  -4.7097
    -4.6419  -4.4385   0.4811   0.5853   0.6697   1.2348   1.2940   1.5282
     1.6740   1.7064   2.0477   2.0698   2.1843   2.2780   2.3944   3.3797
     3.3830   3.4352   3.5360   3.5407   3.7456   3.8036   3.9236   4.0948
     4.4530   5.1270   5.5171   5.9528   6.0840   6.6773   6.7151   6.8384
     7.3818   7.5372

          k =-0.5081-0.2579 0.1485 ( 36485 PWs)   bands (ev):

   -44.1348 -44.1348 -22.2594 -22.2594 -22.2042 -22.2042 -22.0599 -22.0599
    -7.3003  -7.0659  -6.7880  -6.6865  -6.0317  -5.4944  -4.9102  -4.6781
    -4.6616  -4.4649   0.4616   0.6768   0.7665   1.0237   1.2975   1.3967
     1.5320   1.6202   2.0245   2.0802   2.3207   2.5415   2.8104   3.3301
     3.3980   3.4351   3.5363   3.5502   3.6241   3.7182   3.8401   4.1481
     4.2921   4.5330   6.0979   6.1528   6.2567   6.6838   6.7198   6.7392
     7.2158   7.4870

          k =-0.5081-0.2579-0.2971 ( 36478 PWs)   bands (ev):

   -44.1348 -44.1348 -22.2594 -22.2594 -22.2042 -22.2042 -22.0599 -22.0599
    -7.2062  -7.2062  -6.7207  -6.7207  -5.7955  -5.7955  -4.7665  -4.7665
    -4.5506  -4.5506   0.5618   0.5618   1.0454   1.0454   1.1138   1.1138
     1.5010   1.5010   2.0507   2.0507   2.7475   2.7475   3.1751   3.1751
     3.3834   3.3834   3.4718   3.4718   3.6860   3.6860   3.8194   3.8194
     4.2565   4.2565   6.3165   6.3165   6.6303   6.6303   6.7814   6.7814
     7.1281   7.1281

          k =-0.2541-0.1934 0.0000 ( 36410 PWs)   bands (ev):

   -44.1357 -44.1357 -22.2642 -22.2641 -22.1806 -22.1806 -22.0628 -22.0627
    -7.6684  -7.2524  -7.0551  -6.7990  -6.3205  -5.3552  -4.9972  -4.8204
    -4.7484  -3.9945   0.4825   0.8864   0.9511   1.2516   1.3311   1.4136
     1.8902   1.8991   2.0987   2.5243   2.5742   3.1893   3.3081   3.6378
     3.6678   3.7240   3.7650   3.8717   3.8728   4.2017   4.2364   4.2608
     4.3978   4.6081   5.8402   6.0046   6.2950   6.5975   6.6253   6.8036
     6.9931   7.0835

          k =-0.2541-0.1934 0.1485 ( 36427 PWs)   bands (ev):

   -44.1357 -44.1357 -22.2642 -22.2641 -22.1806 -22.1806 -22.0628 -22.0627
    -7.6327  -7.3743  -6.9557  -6.8128  -6.2311  -5.6267  -4.8543  -4.7646
    -4.6756  -4.0866   0.5281   0.9434   0.9682   1.0323   1.2067   1.5029
     1.8065   2.1917   2.3258   2.5222   2.5511   2.9262   3.3356   3.3750
     3.5871   3.6441   3.7697   3.8964   3.9782   4.1147   4.2570   4.2737
     4.6747   4.8929   5.8166   5.9244   6.1719   6.3333   6.5064   6.7258
     7.1913   7.2954

          k =-0.2541-0.1934-0.2971 ( 36422 PWs)   bands (ev):

   -44.1357 -44.1357 -22.2641 -22.2641 -22.1806 -22.1806 -22.0628 -22.0628
    -7.5293  -7.5293  -6.8598  -6.8598  -5.9780  -5.9780  -4.8037  -4.8037
    -4.3381  -4.3381   0.6893   0.6893   1.0783   1.0783   1.2087   1.2087
     2.2100   2.2100   2.4691   2.4691   2.6728   2.6728   3.1862   3.1862
     3.5876   3.5876   3.8154   3.8154   4.0730   4.0730   4.2753   4.2753
     5.0754   5.0754   5.7308   5.7308   6.1359   6.1359   6.5265   6.5265
     7.3988   7.3988

          k = 0.0000-0.1290 0.0000 ( 36417 PWs)   bands (ev):

   -44.1361 -44.1361 -22.2661 -22.2661 -22.1708 -22.1708 -22.0640 -22.0639
    -7.7887  -7.3632  -7.1304  -6.8423  -6.3773  -5.3986  -4.9850  -4.8609
    -4.7951  -3.8459   0.3895   0.7541   0.7915   1.1144   1.5018   1.5500
     2.3343   2.3686   2.7038   2.7206   2.9633   3.0186   3.2510   3.4271
     3.6062   3.7407   3.8277   4.0135   4.2148   4.2778   4.2906   4.6600
     4.8981   5.4802   5.6520   5.7840   5.8557   6.0150   6.2710   6.8215
     6.9689   7.2443

          k = 0.0000-0.1290 0.1485 ( 36419 PWs)   bands (ev):

   -44.1361 -44.1361 -22.2661 -22.2661 -22.1708 -22.1708 -22.0640 -22.0639
    -7.7521  -7.4868  -7.0221  -6.8578  -6.2925  -5.6807  -4.8703  -4.8077
    -4.6658  -3.9619   0.4488   0.8282   0.9132   1.0261   1.0889   1.9444
     2.0924   2.3631   2.5709   2.8333   2.9512   3.1340   3.3559   3.4004
     3.6795   3.8111   3.8205   3.9901   4.1538   4.2984   4.3117   4.6650
     4.7992   5.0020   5.7981   5.9866   5.9953   6.0137   6.5883   6.6245
     6.7940   7.1998

          k = 0.0000-0.1290-0.2971 ( 36464 PWs)   bands (ev):

   -44.1361 -44.1361 -22.2661 -22.2661 -22.1708 -22.1708 -22.0639 -22.0639
    -7.6460  -7.6460  -6.9115  -6.9115  -6.0420  -6.0420  -4.8373  -4.8373
    -4.2673  -4.2673   0.6604   0.6604   0.9317   0.9317   1.3826   1.3826
     2.4461   2.4461   2.6681   2.6681   2.9113   2.9113   3.4503   3.4503
     3.8274   3.8274   3.9851   3.9851   4.2494   4.2494   4.4118   4.4118
     4.6970   4.6970   5.9544   5.9544   6.2409   6.2409   6.4069   6.4069
     7.0380   7.0380

          k = 1.0162 0.0000 0.0000 ( 36499 PWs)   bands (ev):

   -44.1336 -44.1335 -22.2525 -22.2525 -22.2376 -22.2376 -22.0559 -22.0559
    -6.7062  -6.6861  -5.9354  -5.9254  -5.8735  -5.8651  -5.3769  -5.3762
    -4.5211  -4.4970  -0.0019   0.0422   0.3288   0.3660   1.0027   1.0332
     1.4801   1.6522   2.2346   2.3763   2.3832   2.4057   2.7865   2.8033
     2.8282   2.8937   3.2494   3.2616   3.2719   3.4058   3.6041   3.6853
     3.7131   4.0703   6.4881   6.5343   6.5450   6.6355   7.0443   7.0888
     7.0990   7.1083

          k = 1.0162 0.0000 0.1485 ( 36485 PWs)   bands (ev):

   -44.1335 -44.1335 -22.2525 -22.2525 -22.2376 -22.2376 -22.0559 -22.0559
    -6.7025  -6.6882  -5.9547  -5.9471  -5.8532  -5.8479  -5.3728  -5.3722
    -4.5214  -4.5044  -0.0920  -0.0777   0.5625   0.5653   1.0209   1.0256
     1.4753   1.5832   2.0093   2.0167   2.3779   2.3812   2.6564   2.7829
     2.9789   3.0631   3.0648   3.1832   3.5215   3.6313   3.6705   3.7235
     4.0030   4.1618   5.9652   6.0117   6.4589   6.5451   7.0767   7.0861
     7.3219   7.3276

          k = 1.0162 0.0000-0.2971 ( 36514 PWs)   bands (ev):

   -44.1336 -44.1336 -22.2525 -22.2525 -22.2376 -22.2376 -22.0559 -22.0559
    -6.6945  -6.6945  -5.9656  -5.9656  -5.8377  -5.8377  -5.3684  -5.3684
    -4.5167  -4.5167  -0.1479  -0.1479   0.8405   0.8405   0.9449   0.9449
     1.5382   1.5382   1.7124   1.7124   2.3580   2.3580   2.7455   2.7455
     3.0225   3.0225   3.0976   3.0976   3.6364   3.6364   3.7909   3.7909
     4.4143   4.4143   5.5101   5.5101   6.4197   6.4197   7.1033   7.1033
     7.3992   7.3992

          k = 1.2703 0.0645 0.0000 ( 36468 PWs)   bands (ev):

   -44.1339 -44.1339 -22.2546 -22.2546 -22.2277 -22.2277 -22.0571 -22.0570
    -6.8788  -6.7409  -6.4647  -6.4395  -5.8128  -5.3723  -5.2283  -5.0972
    -4.5889  -4.5292   0.0249   0.0718   0.5156   0.9942   1.0958   1.2317
     1.5072   1.7115   2.0082   2.0647   2.3199   2.4345   2.4382   2.8454
     2.8815   3.1468   3.3355   3.4839   3.5273   3.5679   3.6872   3.7857
     3.9289   4.4486   5.8689   6.2708   6.4260   6.6743   6.8951   7.0404
     7.2127   7.5934

          k = 1.2703 0.0645 0.1485 ( 36490 PWs)   bands (ev):

   -44.1339 -44.1339 -22.2546 -22.2546 -22.2277 -22.2277 -22.0571 -22.0570
    -6.8593  -6.7605  -6.4681  -6.4549  -5.7436  -5.4406  -5.2024  -5.1136
    -4.5764  -4.5352   0.0332   0.2426   0.4035   0.9020   1.0427   1.1886
     1.5550   1.6368   1.8320   2.2474   2.2868   2.5955   2.6931   2.8600
     2.9125   3.1389   3.1617   3.3641   3.4449   3.5630   3.7543   3.8219
     3.9182   4.5697   5.5516   6.3837   6.5718   6.7088   6.8355   7.0452
     7.1013   7.4871

          k = 1.2703 0.0645-0.2971 ( 36480 PWs)   bands (ev):

   -44.1339 -44.1339 -22.2546 -22.2546 -22.2277 -22.2277 -22.0571 -22.0571
    -6.8103  -6.8103  -6.4697  -6.4697  -5.5905  -5.5905  -5.1552  -5.1552
    -4.5527  -4.5527   0.1768   0.1768   0.5995   0.5995   1.0372   1.0372
     1.5832   1.5832   2.0930   2.0930   2.4884   2.4884   2.8178   2.8178
     3.0209   3.0209   3.1838   3.1838   3.5889   3.5889   3.8572   3.8572
     4.0840   4.0840   6.0481   6.0481   6.4250   6.4250   7.0522   7.0522
     7.3109   7.3109

          k =-0.5081-0.3869 0.0000 ( 36463 PWs)   bands (ev):

   -44.1348 -44.1348 -22.2594 -22.2594 -22.2042 -22.2042 -22.0599 -22.0599
    -7.3210  -6.9302  -6.8857  -6.6863  -6.1334  -5.2585  -5.0904  -4.7147
    -4.6341  -4.4396   0.4680   0.5925   0.6646   1.2454   1.3946   1.5771
     1.6647   1.7117   2.0560   2.0869   2.2070   2.2886   2.3917   3.2659
     3.4032   3.4424   3.4631   3.5958   3.7022   3.7742   3.8381   4.0894
     4.4409   5.1281   5.5078   5.8615   6.1489   6.7533   6.7889   6.8369
     7.3013   7.5259

          k =-0.5081-0.3869 0.1485 ( 36477 PWs)   bands (ev):

   -44.1348 -44.1348 -22.2594 -22.2594 -22.2042 -22.2042 -22.0599 -22.0599
    -7.2886  -7.0582  -6.7950  -6.6977  -6.0376  -5.4940  -4.9210  -4.6758
    -4.6610  -4.4625   0.4593   0.6862   0.7573   1.0192   1.3475   1.3990
     1.6007   1.6879   2.0183   2.0719   2.3160   2.5810   2.8240   3.2229
     3.3981   3.4351   3.4748   3.5627   3.6183   3.7127   3.7962   4.1139
     4.2313   4.5404   6.0457   6.1734   6.2398   6.6392   6.7940   6.8633
     7.1400   7.4849

          k =-0.5081-0.3869-0.2971 ( 36492 PWs)   bands (ev):

   -44.1348 -44.1348 -22.2594 -22.2594 -22.2042 -22.2042 -22.0599 -22.0599
    -7.1957  -7.1957  -6.7320  -6.7320  -5.7968  -5.7968  -4.7754  -4.7754
    -4.5446  -4.5446   0.5684   0.5684   1.0435   1.0435   1.0986   1.0986
     1.6086   1.6086   2.0331   2.0331   2.7809   2.7809   3.1593   3.1593
     3.3479   3.3479   3.4339   3.4339   3.6843   3.6843   3.8063   3.8063
     4.2064   4.2064   6.2810   6.2810   6.6662   6.6662   6.7756   6.7756
     7.1468   7.1468

          k =-0.2541-0.3224 0.0000 ( 36485 PWs)   bands (ev):

   -44.1357 -44.1357 -22.2642 -22.2641 -22.1806 -22.1806 -22.0628 -22.0627
    -7.6569  -7.2505  -7.0464  -6.8100  -6.3406  -5.3564  -5.0085  -4.8252
    -4.7383  -3.9959   0.5085   0.8987   1.0734   1.3004   1.3249   1.4852
     1.9251   1.9362   2.0991   2.4492   2.5293   3.2493   3.2994   3.4622
     3.6096   3.6230   3.7464   3.8322   3.9071   4.1312   4.1540   4.2286
     4.3608   4.5935   5.9254   6.0280   6.3513   6.5837   6.7081   6.8194
     6.9215   7.0179

          k =-0.2541-0.3224 0.1485 ( 36445 PWs)   bands (ev):

   -44.1357 -44.1357 -22.2642 -22.2641 -22.1806 -22.1806 -22.0628 -22.0627
    -7.6214  -7.3668  -6.9568  -6.8239  -6.2456  -5.6285  -4.8753  -4.7596
    -4.6673  -4.0865   0.5500   0.9574   0.9938   1.1594   1.2823   1.5263
     1.8208   2.1949   2.3628   2.4541   2.5180   2.9081   3.3701   3.4026
     3.4553   3.5416   3.6817   3.8855   3.9126   4.0750   4.1726   4.2286
     4.6969   4.8656   5.8022   5.9562   6.1675   6.3570   6.6048   6.7367
     7.1470   7.2786

          k =-0.2541-0.3224-0.2971 ( 36442 PWs)   bands (ev):

   -44.1357 -44.1357 -22.2642 -22.2642 -22.1806 -22.1806 -22.0628 -22.0628
    -7.5190  -7.5190  -6.8689  -6.8689  -5.9840  -5.9840  -4.8109  -4.8109
    -4.3346  -4.3346   0.7040   0.7040   1.1935   1.1935   1.2260   1.2260
     2.2140   2.2140   2.4373   2.4373   2.6663   2.6663   3.2217   3.2217
     3.4343   3.4343   3.7940   3.7940   4.0335   4.0335   4.2090   4.2090
     5.0880   5.0880   5.6880   5.6880   6.1188   6.1188   6.6281   6.6281
     7.3727   7.3727

          k = 0.0000-0.2579 0.0000 ( 36445 PWs)   bands (ev):

   -44.1361 -44.1361 -22.2661 -22.2661 -22.1708 -22.1708 -22.0640 -22.0639
    -7.7785  -7.3615  -7.1198  -6.8529  -6.3987  -5.4008  -4.9967  -4.8674
    -4.7829  -3.8473   0.4286   0.7659   0.9036   1.1613   1.5275   1.6094
     2.3380   2.3715   2.7012   2.7384   2.9616   3.0427   3.3166   3.3542
     3.3985   3.6577   3.7139   3.9637   4.1476   4.1562   4.2149   4.6600
     4.8736   5.4280   5.7136   5.8021   5.9019   6.0877   6.3613   6.7678
     6.9694   7.1946

          k = 0.0000-0.2579 0.1485 ( 36452 PWs)   bands (ev):

   -44.1361 -44.1361 -22.2661 -22.2661 -22.1708 -22.1708 -22.0640 -22.0639
    -7.7421  -7.4801  -7.0206  -6.8679  -6.3089  -5.6835  -4.8910  -4.8014
    -4.6589  -3.9621   0.4827   0.9241   0.9465   1.0740   1.1322   1.9619
     2.1310   2.3672   2.5766   2.8404   2.9508   3.1343   3.2786   3.3417
     3.6273   3.6567   3.7868   3.9152   4.1478   4.1735   4.1933   4.6646
     4.7850   4.9901   5.8318   6.0071   6.0277   6.0613   6.5882   6.6394
     6.7962   7.1631

          k = 0.0000-0.2579-0.2971 ( 36454 PWs)   bands (ev):

   -44.1361 -44.1361 -22.2661 -22.2661 -22.1708 -22.1708 -22.0639 -22.0639
    -7.6369  -7.6369  -6.9187  -6.9187  -6.0495  -6.0495  -4.8435  -4.8435
    -4.2647  -4.2647   0.6937   0.6937   1.0186   1.0186   1.4017   1.4017
     2.4510   2.4510   2.6911   2.6911   2.9143   2.9143   3.3222   3.3222
     3.7728   3.7728   3.9681   3.9681   4.1120   4.1120   4.3981   4.3981
     4.6935   4.6935   5.9560   5.9560   6.2789   6.2789   6.4127   6.4127
     7.0223   7.0223

          k = 1.5243 0.0000 0.0000 ( 36439 PWs)   bands (ev):

   -44.1348 -44.1348 -22.2594 -22.2594 -22.2042 -22.2042 -22.0599 -22.0599
    -7.3159  -6.9294  -6.8856  -6.6904  -6.1374  -5.2581  -5.0934  -4.7162
    -4.6314  -4.4401   0.4627   0.5990   0.6575   1.2496   1.4565   1.5925
     1.6596   1.7000   2.0635   2.1047   2.2426   2.2569   2.3886   3.2196
     3.3913   3.4151   3.4736   3.6946   3.6975   3.7062   3.7624   4.1068
     4.4353   5.1270   5.5045   5.8235   6.1784   6.7171   6.8439   6.8896
     7.2549   7.5574

          k = 1.5243 0.0000 0.1485 ( 36476 PWs)   bands (ev):

   -44.1348 -44.1348 -22.2594 -22.2594 -22.2042 -22.2042 -22.0599 -22.0599
    -7.2836  -7.0549  -6.7982  -6.7023  -6.0401  -5.4938  -4.9253  -4.6753
    -4.6604  -4.4616   0.4584   0.6907   0.7518   1.0175   1.3707   1.3992
     1.6345   1.7176   2.0246   2.0584   2.3174   2.5872   2.8314   3.1781
     3.3584   3.4437   3.4577   3.6199   3.6219   3.7145   3.7255   4.1425
     4.1780   4.5434   6.0192   6.1851   6.2357   6.6095   6.8364   6.9303
     7.0920   7.4973

          k = 1.5243 0.0000-0.2971 ( 36508 PWs)   bands (ev):

   -44.1348 -44.1348 -22.2594 -22.2594 -22.2042 -22.2042 -22.0599 -22.0599
    -7.1912  -7.1912  -6.7368  -6.7368  -5.7973  -5.7973  -4.7790  -4.7790
    -4.5423  -4.5423   0.5710   0.5710   1.0426   1.0426   1.0933   1.0933
     1.6615   1.6615   2.0194   2.0194   2.7988   2.7988   3.1243   3.1243
     3.3466   3.3466   3.4297   3.4297   3.6824   3.6824   3.7991   3.7991
     4.1869   4.1869   6.2667   6.2667   6.6618   6.6618   6.7880   6.7880
     7.1612   7.1612

          k =-0.2541-0.4514 0.0000 ( 36444 PWs)   bands (ev):

   -44.1357 -44.1357 -22.2642 -22.2641 -22.1806 -22.1806 -22.0628 -22.0627
    -7.6485  -7.2492  -7.0410  -6.8168  -6.3555  -5.3572  -5.0168  -4.8261
    -4.7333  -3.9969   0.5186   0.9084   1.1911   1.3188   1.3236   1.5715
     1.9517   1.9748   2.0952   2.3657   2.4544   3.2052   3.3251   3.3920
     3.5253   3.6495   3.7687   3.8205   3.8268   4.0937   4.1260   4.1779
     4.3602   4.5814   5.9961   6.0395   6.3777   6.5709   6.7720   6.8233
     6.8383   6.9999

          k =-0.2541-0.4514 0.1485 ( 36461 PWs)   bands (ev):

   -44.1357 -44.1357 -22.2642 -22.2641 -22.1806 -22.1806 -22.0628 -22.0627
    -7.6132  -7.3615  -6.9584  -6.8312  -6.2561  -5.6297  -4.8882  -4.7574
    -4.6621  -4.0864   0.5578   0.9711   1.0004   1.2923   1.3435   1.5497
     1.8428   2.1950   2.3714   2.3984   2.4497   2.9043   3.3020   3.3266
     3.4297   3.5598   3.7292   3.8457   3.8689   3.9701   4.1673   4.1947
     4.7359   4.8283   5.7945   5.9805   6.1738   6.3349   6.6724   6.7416
     7.1278   7.2650

          k =-0.2541-0.4514-0.2971 ( 36490 PWs)   bands (ev):

   -44.1357 -44.1357 -22.2642 -22.2642 -22.1806 -22.1806 -22.0628 -22.0628
    -7.5115  -7.5115  -6.8757  -6.8757  -5.9882  -5.9882  -4.8160  -4.8160
    -4.3322  -4.3322   0.7087   0.7087   1.2231   1.2231   1.3200   1.3200
     2.2213   2.2213   2.3796   2.3796   2.6626   2.6626   3.2311   3.2311
     3.3311   3.3311   3.8136   3.8136   3.9839   3.9839   4.1763   4.1763
     5.0980   5.0980   5.6621   5.6621   6.0988   6.0988   6.6894   6.6894
     7.3574   7.3574

          k = 0.0000-0.3869 0.0000 ( 36477 PWs)   bands (ev):

   -44.1361 -44.1361 -22.2661 -22.2661 -22.1708 -22.1708 -22.0640 -22.0639
    -7.7679  -7.3598  -7.1098  -6.8620  -6.4214  -5.4029  -5.0092  -4.8681
    -4.7756  -3.8488   0.4520   0.7786   1.0569   1.2236   1.5516   1.6775
     2.3418   2.3758   2.6987   2.7576   2.9592   3.0827   3.0899   3.1163
     3.5027   3.6337   3.6865   3.9504   3.9669   4.0175   4.2148   4.6602
     4.8495   5.3987   5.7790   5.8204   5.9573   6.1319   6.4224   6.6765
     6.9698   7.1684

          k = 0.0000-0.3869 0.1485 ( 36452 PWs)   bands (ev):

   -44.1361 -44.1361 -22.2661 -22.2661 -22.1708 -22.1708 -22.0640 -22.0639
    -7.7318  -7.4733  -7.0200  -6.8773  -6.3256  -5.6862  -4.9085  -4.7977
    -4.6528  -3.9622   0.4998   0.9658   1.0193   1.1622   1.2175   1.9823
     2.1686   2.3712   2.5821   2.8489   2.9500   2.9985   3.0679   3.3261
     3.5739   3.6787   3.7621   3.9116   4.0318   4.0611   4.1415   4.6645
     4.7710   4.9861   5.8754   6.0192   6.0616   6.0789   6.5415   6.6628
     6.7983   7.1327

          k = 0.0000-0.3869-0.2971 ( 36454 PWs)   bands (ev):

   -44.1361 -44.1361 -22.2661 -22.2661 -22.1708 -22.1708 -22.0639 -22.0639
    -7.6275  -7.6275  -6.9262  -6.9262  -6.0569  -6.0569  -4.8498  -4.8498
    -4.2621  -4.2621   0.7059   0.7059   1.1537   1.1537   1.4220   1.4220
     2.4558   2.4558   2.6929   2.6929   2.9176   2.9176   3.1187   3.1187
     3.8017   3.8017   3.9507   3.9507   3.9935   3.9935   4.3797   4.3797
     4.6903   4.6903   5.9443   5.9443   6.3072   6.3072   6.4187   6.4187
     6.9954   6.9954

          k =-2.0325 0.0000 0.0000 ( 36452 PWs)   bands (ev):

   -44.1361 -44.1361 -22.2661 -22.2661 -22.1708 -22.1708 -22.0640 -22.0639
    -7.7635  -7.3591  -7.1060  -6.8653  -6.4311  -5.4037  -5.0146  -4.8674
    -4.7734  -3.8494   0.4573   0.7841   1.1744   1.2101   1.5611   1.7196
     2.3434   2.3783   2.6976   2.7660   2.9538   2.9580   3.0054   3.1053
     3.6200   3.6444   3.6750   3.8339   3.9455   3.9581   4.2148   4.6603
     4.8396   5.3900   5.8065   5.8280   5.9868   6.1454   6.4416   6.6264
     6.9699   7.1624

          k =-2.0325 0.0000 0.1485 ( 36456 PWs)   bands (ev):

   -44.1361 -44.1361 -22.2661 -22.2661 -22.1708 -22.1708 -22.0640 -22.0639
    -7.7274  -7.4705  -7.0201  -6.8809  -6.3327  -5.6873  -4.9151  -4.7965
    -4.6504  -3.9623   0.5026   0.9761   1.0446   1.2159   1.2740   1.9917
     2.1858   2.3729   2.5843   2.8529   2.8949   2.9495   2.9510   3.3593
     3.5537   3.7365   3.7517   3.9045   3.9525   4.0063   4.1387   4.6646
     4.7653   4.9857   5.8983   6.0244   6.0754   6.0773   6.5162   6.6684
     6.7992   7.1226

          k =-2.0325 0.0000-0.2971 ( 36460 PWs)   bands (ev):

   -44.1361 -44.1361 -22.2661 -22.2661 -22.1708 -22.1708 -22.0639 -22.0639
    -7.6235  -7.6235  -6.9294  -6.9294  -6.0599  -6.0599  -4.8524  -4.8524
    -4.2611  -4.2611   0.7071   0.7071   1.2262   1.2262   1.4307   1.4307
     2.4578   2.4578   2.6709   2.6709   2.9191   2.9191   3.0395   3.0395
     3.8353   3.8353   3.9336   3.9336   3.9434   3.9434   4.3729   4.3729
     4.6891   4.6891   5.9367   5.9367   6.3164   6.3164   6.4213   6.4213
     6.9828   6.9828

     the Fermi energy is     5.4844 ev

!    total energy              =   -4240.95289296 Ry

     total all-electron energy =   -150287.646588 Ry
     estimated scf accuracy    <          2.9E-12 Ry
     smearing contrib. (-TS)   =      -0.00000096 Ry
     internal energy E=F+TS    =   -4240.95289201 Ry

     The total energy is F=E-TS. E is the sum of the following terms:
     one-electron contribution =    -166.45887146 Ry
     hartree contribution      =     116.70913092 Ry
     xc contribution           =    -201.47769480 Ry
     ewald contribution        =    -222.20877906 Ry
     one-center paw contrib.   =   -3767.51667761 Ry

     convergence has been achieved in  17 iterations

     Forces acting on atoms (cartesian axes, Ry/au):

     atom    1 type  1   force =     0.00000000   -0.00487376    0.00000000
     atom    2 type  1   force =     0.00000000    0.00487376    0.00000000
     atom    3 type  2   force =     0.00000000    0.00014256    0.00000000
     atom    4 type  2   force =     0.00000000   -0.00014256    0.00000000
     atom    5 type  2   force =     0.00000000    0.00106337    0.00044286
     atom    6 type  2   force =    -0.00000000   -0.00106337   -0.00044286
     atom    7 type  2   force =     0.00000000    0.00106337   -0.00044286
     atom    8 type  2   force =     0.00000000   -0.00106337    0.00044286
     atom    9 type  2   force =     0.00000000    0.00655713    0.00646019
     atom   10 type  2   force =     0.00000000   -0.00655713   -0.00646019
     atom   11 type  2   force =     0.00000000    0.00655713   -0.00646019
     atom   12 type  2   force =     0.00000000   -0.00655713    0.00646019

     Total force =     0.019793     Total SCF correction =     0.000003


     Computing stress (Cartesian axis) and pressure

          total   stress  (Ry/bohr**3)                   (kbar)     P=       -1.57
  -0.00000841   0.00000000   0.00000000           -1.24        0.00        0.00
   0.00000000  -0.00000900   0.00000000            0.00       -1.32        0.00
   0.00000000   0.00000000  -0.00001460            0.00        0.00       -2.15

 
     init_run     :     35.64s CPU     37.13s WALL (       1 calls)
     electrons    :   1701.40s CPU   1719.25s WALL (       1 calls)
     forces       :      6.90s CPU      7.15s WALL (       1 calls)
     stress       :     45.34s CPU     46.08s WALL (       1 calls)

     Called by init_run:
     wfcinit      :     30.61s CPU     30.88s WALL (       1 calls)
     potinit      :      1.54s CPU      1.60s WALL (       1 calls)
     hinit0       :      1.75s CPU      2.62s WALL (       1 calls)

     Called by electrons:
     c_bands      :   1384.91s CPU   1392.57s WALL (      18 calls)
     sum_band     :    283.50s CPU    289.51s WALL (      18 calls)
     v_of_rho     :      8.59s CPU      9.18s WALL (      18 calls)
     newd         :     17.35s CPU     21.15s WALL (      18 calls)
     PAW_pot      :      6.61s CPU      6.61s WALL (      18 calls)
     mix_rho      :      1.53s CPU      1.57s WALL (      18 calls)

     Called by c_bands:
     init_us_2    :     13.84s CPU     13.92s WALL (    2457 calls)
     cegterg      :   1308.68s CPU   1315.60s WALL (    1134 calls)

     Called by *egterg:
     cdiaghg      :     29.06s CPU     29.18s WALL (    8294 calls)
     h_psi        :   1126.26s CPU   1132.85s WALL (    8420 calls)
     s_psi        :     52.67s CPU     52.77s WALL (    8420 calls)
     g_psi        :      2.29s CPU      2.31s WALL (    7223 calls)

     Called by h_psi:
     h_psi:calbec :     44.23s CPU     44.33s WALL (    8420 calls)
     vloc_psi     :   1025.06s CPU   1031.38s WALL (    8420 calls)
     add_vuspsi   :     52.96s CPU     53.05s WALL (    8420 calls)

     General routines
     calbec       :     57.39s CPU     57.54s WALL (    9869 calls)
     fft          :      7.74s CPU      8.52s WALL (     258 calls)
     ffts         :      0.20s CPU      0.20s WALL (      36 calls)
     fftw         :   1012.44s CPU   1018.70s WALL (  424236 calls)
     interpolate  :      0.66s CPU      0.67s WALL (      18 calls)
 
     Parallel routines
     fft_scatt_xy :    278.03s CPU    279.78s WALL (  424530 calls)
     fft_scatt_yz :    172.13s CPU    173.71s WALL (  424530 calls)
 
     PWSCF        :  29m50.87s CPU  30m15.40s WALL

 
   This run was terminated on:  15:16:32  19Nov2021            

=------------------------------------------------------------------------------=
   JOB DONE.
=------------------------------------------------------------------------------=
