
     Program PWSCF v.6.7MaX starts on 19Nov2021 at 14:46:19 

     This program is part of the open-source Quantum ESPRESSO suite
     for quantum simulation of materials; please cite
         "P. Giannozzi et al., J. Phys.:Condens. Matter 21 395502 (2009);
         "P. Giannozzi et al., J. Phys.:Condens. Matter 29 465901 (2017);
          URL http://www.quantum-espresso.org", 
     in publications or presentations arising from this work. More details at
     http://www.quantum-espresso.org/quote

     Parallel version (MPI), running on    10 processors

     MPI processes distributed on     1 nodes
     R & G space division:  proc/nbgrp/npool/nimage =      10
     Waiting for input...
     Reading input from standard input

     Current dimensions of program PWSCF are:
     Max number of different atomic species (ntypx) = 10
     Max number of k-points (npk) =  40000
     Max angular momentum in pseudopotentials (lmaxx) =  3
     file Zr.pbe-spn-kjpaw_psl.1.0.0.UPF: wavefunction(s)  4S 4P renormalized
     file Te.pbe-n-kjpaw_psl.1.0.0.UPF: wavefunction(s)  5S 5P renormalized

     Subspace diagonalization in iterative solution of the eigenvalue problem:
     a serial algorithm will be used

     Message from routine setup:
     using ibrav=0 with symmetry is DISCOURAGED, use correct ibrav instead
 
     Parallelization info
     --------------------
     sticks:   dense  smooth     PW     G-vecs:    dense   smooth      PW
     Min         734     293     87               115340    29174    4753
     Max         735     295     88               115345    29176    4760
     Sum        7345    2937    873              1153415   291749   47557
 


     bravais-lattice index     =            0
     lattice parameter (alat)  =      15.5510  a.u.
     unit-cell volume          =    3018.5011 (a.u.)^3
     number of atoms/cell      =           12
     number of atomic types    =            2
     number of electrons       =        84.00
     number of Kohn-Sham states=           50
     kinetic-energy cutoff     =      80.0000  Ry
     charge density cutoff     =     800.0000  Ry
     scf convergence threshold =      1.0E-10
     mixing beta               =       0.7000
     number of iterations used =            8  plain     mixing
     Exchange-correlation= SLA  PW   PBX  PBC
                           (   1   4   3   4   0   0   0)

     celldm(1)=  15.551040  celldm(2)=   0.000000  celldm(3)=   0.000000
     celldm(4)=   0.000000  celldm(5)=   0.000000  celldm(6)=   0.000000

     crystal axes: (cart. coord. in units of alat)
               a(1) = (   0.246007  -0.969268   0.000000 )  
               a(2) = (   0.246007   0.969268   0.000000 )  
               a(3) = (   0.000000   0.000000   1.683031 )  

     reciprocal axes: (cart. coord. in units 2 pi/alat)
               b(1) = (  2.032465 -0.515853  0.000000 )  
               b(2) = (  2.032465  0.515853  0.000000 )  
               b(3) = (  0.000000  0.000000  0.594166 )  


     PseudoPot. # 1 for Zr read from file:
     pseudo/Zr.pbe-spn-kjpaw_psl.1.0.0.UPF
     MD5 check sum: 02112c41713a0468aff2bb39ef194e36
     Pseudo is Projector augmented-wave + core cor, Zval = 12.0
     Generated using &quot;atomic&quot; code by A. Dal Corso  v.6.2.2
     Shape of augmentation charge: PSQ
     Using radial grid of 1225 points,  6 beta functions with: 
                l(1) =   0
                l(2) =   0
                l(3) =   1
                l(4) =   1
                l(5) =   2
                l(6) =   2
     Q(r) pseudized with 0 coefficients 


     PseudoPot. # 2 for Te read from file:
     pseudo/Te.pbe-n-kjpaw_psl.1.0.0.UPF
     MD5 check sum: 66247bff2bd9dbf220fbb0bf5ab56e9d
     Pseudo is Projector augmented-wave + core cor, Zval =  6.0
     Generated using &quot;atomic&quot; code by A. Dal Corso  v.6.3
     Shape of augmentation charge: PSQ
     Using radial grid of 1245 points,  6 beta functions with: 
                l(1) =   0
                l(2) =   0
                l(3) =   1
                l(4) =   1
                l(5) =   2
                l(6) =   2
     Q(r) pseudized with 0 coefficients 


     atomic species   valence    mass     pseudopotential
        Zr            12.00    91.22000     Zr( 1.00)
        Te             6.00   127.60000     Te( 1.00)

      8 Sym. Ops., with inversion, found ( 4 have fractional translation)



   Cartesian axes

     site n.     atom                  positions (alat units)
         1           Zr  tau(   1) = (   0.0000000   0.6058687   0.4207578  )
         2           Zr  tau(   2) = (   0.2460067   0.3633994   1.2622733  )
         3           Te  tau(   3) = (   0.2460067   0.3342536   0.4207578  )
         4           Te  tau(   4) = (   0.0000000   0.6350145   1.2622733  )
         5           Te  tau(   5) = (   0.2460067   0.8097069   0.2519822  )
         6           Te  tau(   6) = (   0.0000000   0.1595613   1.4310489  )
         7           Te  tau(   7) = (   0.2460067   0.8097069   0.5895333  )
         8           Te  tau(   8) = (   0.0000000   0.1595613   1.0934977  )
         9           Te  tau(   9) = (   0.0000000   0.4144342   0.7304458  )
        10           Te  tau(  10) = (   0.2460067   0.5548339   0.9525853  )
        11           Te  tau(  11) = (   0.0000000   0.4144342   0.1110697  )
        12           Te  tau(  12) = (   0.2460067   0.5548339   1.5719613  )

     number of k points=    63  Methfessel-Paxton smearing, width (Ry)=  0.0030
                       cart. coord. in units 2pi/alat
        k(    1) = (   0.0000000   0.0000000   0.0000000), wk =   0.0078125
        k(    2) = (   0.0000000   0.0000000   0.1485415), wk =   0.0156250
        k(    3) = (   0.0000000   0.0000000  -0.2970830), wk =   0.0078125
        k(    4) = (   0.2540581   0.0644816   0.0000000), wk =   0.0312500
        k(    5) = (   0.2540581   0.0644816   0.1485415), wk =   0.0625000
        k(    6) = (   0.2540581   0.0644816  -0.2970830), wk =   0.0312500
        k(    7) = (   0.5081162   0.1289633   0.0000000), wk =   0.0312500
        k(    8) = (   0.5081162   0.1289633   0.1485415), wk =   0.0625000
        k(    9) = (   0.5081162   0.1289633  -0.2970830), wk =   0.0312500
        k(   10) = (   0.7621743   0.1934449   0.0000000), wk =   0.0312500
        k(   11) = (   0.7621743   0.1934449   0.1485415), wk =   0.0625000
        k(   12) = (   0.7621743   0.1934449  -0.2970830), wk =   0.0312500
        k(   13) = (  -1.0162324  -0.2579266   0.0000000), wk =   0.0156250
        k(   14) = (  -1.0162324  -0.2579266   0.1485415), wk =   0.0312500
        k(   15) = (  -1.0162324  -0.2579266  -0.2970830), wk =   0.0156250
        k(   16) = (   0.5081162   0.0000000   0.0000000), wk =   0.0156250
        k(   17) = (   0.5081162   0.0000000   0.1485415), wk =   0.0312500
        k(   18) = (   0.5081162   0.0000000  -0.2970830), wk =   0.0156250
        k(   19) = (   0.7621743   0.0644816   0.0000000), wk =   0.0312500
        k(   20) = (   0.7621743   0.0644816   0.1485415), wk =   0.0625000
        k(   21) = (   0.7621743   0.0644816  -0.2970830), wk =   0.0312500
        k(   22) = (   1.0162324   0.1289633   0.0000000), wk =   0.0312500
        k(   23) = (   1.0162324   0.1289633   0.1485415), wk =   0.0625000
        k(   24) = (   1.0162324   0.1289633  -0.2970830), wk =   0.0312500
        k(   25) = (  -0.7621743  -0.3224082   0.0000000), wk =   0.0312500
        k(   26) = (  -0.7621743  -0.3224082   0.1485415), wk =   0.0625000
        k(   27) = (  -0.7621743  -0.3224082  -0.2970830), wk =   0.0312500
        k(   28) = (  -0.5081162  -0.2579266   0.0000000), wk =   0.0312500
        k(   29) = (  -0.5081162  -0.2579266   0.1485415), wk =   0.0625000
        k(   30) = (  -0.5081162  -0.2579266  -0.2970830), wk =   0.0312500
        k(   31) = (  -0.2540581  -0.1934449   0.0000000), wk =   0.0312500
        k(   32) = (  -0.2540581  -0.1934449   0.1485415), wk =   0.0625000
        k(   33) = (  -0.2540581  -0.1934449  -0.2970830), wk =   0.0312500
        k(   34) = (   0.0000000  -0.1289633   0.0000000), wk =   0.0156250
        k(   35) = (   0.0000000  -0.1289633   0.1485415), wk =   0.0312500
        k(   36) = (   0.0000000  -0.1289633  -0.2970830), wk =   0.0156250
        k(   37) = (   1.0162324   0.0000000   0.0000000), wk =   0.0156250
        k(   38) = (   1.0162324   0.0000000   0.1485415), wk =   0.0312500
        k(   39) = (   1.0162324   0.0000000  -0.2970830), wk =   0.0156250
        k(   40) = (   1.2702905   0.0644816   0.0000000), wk =   0.0312500
        k(   41) = (   1.2702905   0.0644816   0.1485415), wk =   0.0625000
        k(   42) = (   1.2702905   0.0644816  -0.2970830), wk =   0.0312500
        k(   43) = (  -0.5081162  -0.3868899   0.0000000), wk =   0.0312500
        k(   44) = (  -0.5081162  -0.3868899   0.1485415), wk =   0.0625000
        k(   45) = (  -0.5081162  -0.3868899  -0.2970830), wk =   0.0312500
        k(   46) = (  -0.2540581  -0.3224082   0.0000000), wk =   0.0312500
        k(   47) = (  -0.2540581  -0.3224082   0.1485415), wk =   0.0625000
        k(   48) = (  -0.2540581  -0.3224082  -0.2970830), wk =   0.0312500
        k(   49) = (   0.0000000  -0.2579266   0.0000000), wk =   0.0156250
        k(   50) = (   0.0000000  -0.2579266   0.1485415), wk =   0.0312500
        k(   51) = (   0.0000000  -0.2579266  -0.2970830), wk =   0.0156250
        k(   52) = (   1.5243485   0.0000000   0.0000000), wk =   0.0156250
        k(   53) = (   1.5243485   0.0000000   0.1485415), wk =   0.0312500
        k(   54) = (   1.5243485   0.0000000  -0.2970830), wk =   0.0156250
        k(   55) = (  -0.2540581  -0.4513715   0.0000000), wk =   0.0312500
        k(   56) = (  -0.2540581  -0.4513715   0.1485415), wk =   0.0625000
        k(   57) = (  -0.2540581  -0.4513715  -0.2970830), wk =   0.0312500
        k(   58) = (   0.0000000  -0.3868899   0.0000000), wk =   0.0156250
        k(   59) = (   0.0000000  -0.3868899   0.1485415), wk =   0.0312500
        k(   60) = (   0.0000000  -0.3868899  -0.2970830), wk =   0.0156250
        k(   61) = (  -2.0324647   0.0000000   0.0000000), wk =   0.0078125
        k(   62) = (  -2.0324647   0.0000000   0.1485415), wk =   0.0156250
        k(   63) = (  -2.0324647   0.0000000  -0.2970830), wk =   0.0078125

     Dense  grid:  1153415 G-vectors     FFT dimensions: ( 144, 144, 240)

     Smooth grid:   291749 G-vectors     FFT dimensions: (  90,  90, 150)

     Estimated max dynamical RAM per process >     657.19 MB

     Estimated total dynamical RAM >       6.42 GB

     Initial potential from superposition of free atoms

     starting charge   83.99353, renormalised to   84.00000
     Starting wfcs are   66 randomized atomic wfcs
     Checking if some PAW data can be deallocated... 

     total cpu time spent up to now is       45.6 secs

     Self-consistent Calculation

     iteration #  1     ecut=    80.00 Ry     beta= 0.70
     Davidson diagonalization with overlap
     ethr =  1.00E-02,  avg # of iterations =  2.0

     Threshold (ethr) on eigenvalues was too large:
     Diagonalizing with lowered threshold

     Davidson diagonalization with overlap
     ethr =  4.13E-04,  avg # of iterations =  4.0

     total cpu time spent up to now is      206.2 secs

     total energy              =   -4240.73200243 Ry
     estimated scf accuracy    <       0.43383264 Ry

     iteration #  2     ecut=    80.00 Ry     beta= 0.70
     Davidson diagonalization with overlap
     ethr =  5.16E-04,  avg # of iterations =  7.6

     total cpu time spent up to now is      318.6 secs

     total energy              =   -4240.63771723 Ry
     estimated scf accuracy    <       2.06490192 Ry

     iteration #  3     ecut=    80.00 Ry     beta= 0.70
     Davidson diagonalization with overlap
     ethr =  5.16E-04,  avg # of iterations =  5.2

     total cpu time spent up to now is      412.9 secs

     total energy              =   -4240.93673568 Ry
     estimated scf accuracy    <       0.01143680 Ry

     iteration #  4     ecut=    80.00 Ry     beta= 0.70
     Davidson diagonalization with overlap
     c_bands:  1 eigenvalues not converged
     c_bands:  1 eigenvalues not converged
     c_bands:  2 eigenvalues not converged
     c_bands:  1 eigenvalues not converged
     c_bands:  1 eigenvalues not converged
     c_bands:  1 eigenvalues not converged
     c_bands:  2 eigenvalues not converged
     c_bands:  1 eigenvalues not converged
     c_bands:  1 eigenvalues not converged
     c_bands:  2 eigenvalues not converged
     c_bands:  1 eigenvalues not converged
     c_bands:  1 eigenvalues not converged
     c_bands:  2 eigenvalues not converged
     c_bands:  1 eigenvalues not converged
     c_bands:  2 eigenvalues not converged
     c_bands:  2 eigenvalues not converged
     c_bands:  1 eigenvalues not converged
     c_bands:  4 eigenvalues not converged
     c_bands:  1 eigenvalues not converged
     c_bands:  1 eigenvalues not converged
     c_bands:  1 eigenvalues not converged
     c_bands:  2 eigenvalues not converged
     ethr =  1.36E-05,  avg # of iterations = 17.7

     total cpu time spent up to now is      594.5 secs

     total energy              =   -4240.95005091 Ry
     estimated scf accuracy    <       0.07393608 Ry

     iteration #  5     ecut=    80.00 Ry     beta= 0.70
     Davidson diagonalization with overlap
     ethr =  1.36E-05,  avg # of iterations =  7.1

     total cpu time spent up to now is      687.3 secs

     total energy              =   -4240.95200835 Ry
     estimated scf accuracy    <       0.01439113 Ry

     iteration #  6     ecut=    80.00 Ry     beta= 0.70
     Davidson diagonalization with overlap
     ethr =  1.36E-05,  avg # of iterations =  3.7

     total cpu time spent up to now is      764.3 secs

     total energy              =   -4240.95303420 Ry
     estimated scf accuracy    <       0.00170576 Ry

     iteration #  7     ecut=    80.00 Ry     beta= 0.70
     Davidson diagonalization with overlap
     c_bands:  1 eigenvalues not converged
     c_bands:  1 eigenvalues not converged
     ethr =  2.03E-06,  avg # of iterations = 12.7

     total cpu time spent up to now is      892.6 secs

     total energy              =   -4240.95389773 Ry
     estimated scf accuracy    <       0.00176080 Ry

     iteration #  8     ecut=    80.00 Ry     beta= 0.70
     Davidson diagonalization with overlap
     c_bands:  1 eigenvalues not converged
     ethr =  2.03E-06,  avg # of iterations =  2.5

     total cpu time spent up to now is      962.3 secs

     total energy              =   -4240.95393673 Ry
     estimated scf accuracy    <       0.00028064 Ry

     iteration #  9     ecut=    80.00 Ry     beta= 0.70
     Davidson diagonalization with overlap
     ethr =  3.34E-07,  avg # of iterations =  6.5

     total cpu time spent up to now is     1054.0 secs

     total energy              =   -4240.95402492 Ry
     estimated scf accuracy    <       0.00003054 Ry

     iteration # 10     ecut=    80.00 Ry     beta= 0.70
     Davidson diagonalization with overlap
     ethr =  3.64E-08,  avg # of iterations =  3.6

     total cpu time spent up to now is     1130.4 secs

     total energy              =   -4240.95402827 Ry
     estimated scf accuracy    <       0.00000582 Ry

     iteration # 11     ecut=    80.00 Ry     beta= 0.70
     Davidson diagonalization with overlap
     ethr =  6.93E-09,  avg # of iterations =  6.0

     total cpu time spent up to now is     1224.7 secs

     total energy              =   -4240.95403085 Ry
     estimated scf accuracy    <       0.00000106 Ry

     iteration # 12     ecut=    80.00 Ry     beta= 0.70
     Davidson diagonalization with overlap
     ethr =  1.26E-09,  avg # of iterations =  3.1

     total cpu time spent up to now is     1298.3 secs

     total energy              =   -4240.95403098 Ry
     estimated scf accuracy    <       0.00000007 Ry

     iteration # 13     ecut=    80.00 Ry     beta= 0.70
     Davidson diagonalization with overlap
     ethr =  8.53E-11,  avg # of iterations =  8.1

     total cpu time spent up to now is     1410.5 secs

     total energy              =   -4240.95403104 Ry
     estimated scf accuracy    <       0.00000006 Ry

     iteration # 14     ecut=    80.00 Ry     beta= 0.70
     Davidson diagonalization with overlap
     ethr =  6.65E-11,  avg # of iterations =  1.6

     total cpu time spent up to now is     1477.7 secs

     total energy              =   -4240.95403104 Ry
     estimated scf accuracy    <       0.00000002 Ry

     iteration # 15     ecut=    80.00 Ry     beta= 0.70
     Davidson diagonalization with overlap
     ethr =  2.10E-11,  avg # of iterations =  5.9

     total cpu time spent up to now is     1562.6 secs

     total energy              =   -4240.95403104 Ry
     estimated scf accuracy    <          6.9E-10 Ry

     iteration # 16     ecut=    80.00 Ry     beta= 0.70
     Davidson diagonalization with overlap
     ethr =  8.18E-13,  avg # of iterations =  6.8

     total cpu time spent up to now is     1659.8 secs

     total energy              =   -4240.95403104 Ry
     estimated scf accuracy    <          1.1E-09 Ry

     iteration # 17     ecut=    80.00 Ry     beta= 0.70
     Davidson diagonalization with overlap
     ethr =  8.18E-13,  avg # of iterations =  2.7

     total cpu time spent up to now is     1728.9 secs

     total energy              =   -4240.95403104 Ry
     estimated scf accuracy    <          1.7E-10 Ry

     iteration # 18     ecut=    80.00 Ry     beta= 0.70
     Davidson diagonalization with overlap
     ethr =  2.08E-13,  avg # of iterations =  6.2

     total cpu time spent up to now is     1790.9 secs

     End of self-consistent calculation

          k = 0.0000 0.0000 0.0000 ( 36359 PWs)   bands (ev):

   -44.1339 -44.1339 -22.2606 -22.2606 -22.1670 -22.1670 -22.0639 -22.0638
    -7.8523  -7.4772  -7.1306  -6.8595  -6.3178  -5.4079  -4.9371  -4.8415
    -4.7902  -3.8363   0.3450   0.7491   0.7670   1.1179   1.4578   1.5294
     2.2754   2.3400   2.5818   2.7350   2.9480   3.0110   3.2450   3.4131
     3.6926   3.7892   3.9672   4.0680   4.2428   4.3370   4.3555   4.6734
     4.8577   5.4950   5.6352   5.8246   5.8414   5.9492   6.1649   6.8298
     6.9844   7.2716

          k = 0.0000 0.0000 0.1485 ( 36415 PWs)   bands (ev):

   -44.1339 -44.1339 -22.2606 -22.2606 -22.1670 -22.1670 -22.0639 -22.0638
    -7.8173  -7.5734  -7.0441  -6.8768  -6.2399  -5.6671  -4.8422  -4.7989
    -4.6490  -3.9520   0.4102   0.8023   0.9010   1.0100   1.0771   1.9175
     2.0631   2.3029   2.4962   2.8067   2.9336   3.1176   3.3895   3.4011
     3.7026   3.8533   3.9490   4.0698   4.1811   4.3569   4.3733   4.6759
     4.7784   4.9915   5.8051   5.9509   5.9552   6.0216   6.5169   6.6331
     6.8064   7.1973

          k = 0.0000 0.0000-0.2971 ( 36410 PWs)   bands (ev):

   -44.1339 -44.1339 -22.2606 -22.2606 -22.1670 -22.1670 -22.0638 -22.0638
    -7.7172  -7.7172  -6.9352  -6.9352  -6.0078  -6.0078  -4.8200  -4.8200
    -4.2555  -4.2555   0.6247   0.6247   0.9232   0.9232   1.3614   1.3614
     2.3816   2.3816   2.6418   2.6418   2.8876   2.8876   3.4954   3.4954
     3.8907   3.8907   4.0162   4.0162   4.3480   4.3480   4.3903   4.3903
     4.6981   4.6981   5.9359   5.9359   6.2232   6.2232   6.4208   6.4208
     6.9942   6.9942

          k = 0.2541 0.0645 0.0000 ( 36396 PWs)   bands (ev):

   -44.1335 -44.1335 -22.2586 -22.2586 -22.1768 -22.1768 -22.0627 -22.0626
    -7.7343  -7.3646  -7.0594  -6.8118  -6.2561  -5.3631  -4.9527  -4.7986
    -4.7465  -3.9890   0.4310   0.8756   0.8962   1.2349   1.2755   1.4063
     1.7978   1.8552   2.0190   2.5659   2.5913   3.1566   3.3162   3.7221
     3.7498   3.7545   3.8045   3.8235   4.0253   4.2474   4.2883   4.2955
     4.4903   4.5812   5.8141   5.9788   6.2207   6.5832   6.5936   6.7581
     7.0115   7.1748

          k = 0.2541 0.0645 0.1485 ( 36423 PWs)   bands (ev):

   -44.1335 -44.1335 -22.2586 -22.2586 -22.1768 -22.1768 -22.0627 -22.0626
    -7.7000  -7.4606  -6.9781  -6.8275  -6.1760  -5.6134  -4.8169  -4.7571
    -4.6685  -4.0813   0.4841   0.9282   0.9419   0.9614   1.1845   1.4426
     1.7795   2.1017   2.2517   2.5491   2.5755   2.9492   3.3362   3.3508
     3.5672   3.7686   3.9299   3.9450   4.0287   4.1510   4.3220   4.3403
     4.6825   4.8621   5.8410   5.9260   6.1725   6.2634   6.4184   6.7376
     7.2250   7.2992

          k = 0.2541 0.0645-0.2971 ( 36436 PWs)   bands (ev):

   -44.1335 -44.1335 -22.2586 -22.2586 -22.1768 -22.1768 -22.0627 -22.0627
    -7.6019  -7.6019  -6.8798  -6.8798  -5.9443  -5.9443  -4.7831  -4.7831
    -4.3323  -4.3323   0.6571   0.6571   1.0263   1.0263   1.1750   1.1750
     2.1323   2.1323   2.4751   2.4751   2.6711   2.6711   3.1860   3.1860
     3.6307   3.6307   3.9382   3.9382   4.1066   4.1066   4.3473   4.3473
     5.0364   5.0364   5.7778   5.7778   6.1400   6.1400   6.4465   6.4465
     7.4091   7.4092

          k = 0.5081 0.1290 0.0000 ( 36499 PWs)   bands (ev):

   -44.1326 -44.1326 -22.2539 -22.2539 -22.2002 -22.2002 -22.0599 -22.0598
    -7.3964  -7.0371  -6.8912  -6.6869  -6.0668  -5.2621  -5.0614  -4.6869
    -4.6384  -4.4447   0.4172   0.5994   0.6417   1.2056   1.2295   1.4249
     1.6589   1.6950   1.9719   2.1048   2.1666   2.2497   2.4233   3.3743
     3.4575   3.5077   3.5314   3.5908   3.7722   3.8764   3.9256   4.1778
     4.4234   5.0682   5.5785   6.0501   6.0942   6.5873   6.6053   6.9469
     7.4460   7.5646

          k = 0.5081 0.1290 0.1485 ( 36476 PWs)   bands (ev):

   -44.1326 -44.1326 -22.2539 -22.2539 -22.2002 -22.2002 -22.0599 -22.0598
    -7.3646  -7.1399  -6.8138  -6.6990  -5.9860  -5.4838  -4.8912  -4.6681
    -4.6504  -4.4728   0.4173   0.6382   0.7596   1.0071   1.2553   1.3730
     1.4386   1.5635   2.0196   2.0957   2.3465   2.4610   2.8038   3.3965
     3.4218   3.4602   3.5241   3.5877   3.7081   3.7503   3.8491   4.2312
     4.3193   4.5083   6.1375   6.1771   6.3175   6.5890   6.6484   6.8120
     7.2844   7.5084

          k = 0.5081 0.1290-0.2971 ( 36466 PWs)   bands (ev):

   -44.1326 -44.1326 -22.2539 -22.2539 -22.2002 -22.2002 -22.0599 -22.0599
    -7.2733  -7.2733  -6.7384  -6.7384  -5.7698  -5.7698  -4.7454  -4.7454
    -4.5567  -4.5567   0.5194   0.5194   1.0296   1.0296   1.1013   1.1013
     1.4176   1.4176   2.0583   2.0583   2.7087   2.7087   3.1601   3.1601
     3.3999   3.3999   3.5542   3.5542   3.7121   3.7121   3.8343   3.8343
     4.3120   4.3120   6.3795   6.3795   6.5593   6.5593   6.8311   6.8311
     7.1401   7.1401

          k = 0.7622 0.1934 0.0000 ( 36521 PWs)   bands (ev):

   -44.1317 -44.1317 -22.2491 -22.2491 -22.2236 -22.2236 -22.0571 -22.0570
    -6.9332  -6.7372  -6.5316  -6.4828  -5.7844  -5.3875  -5.2154  -5.1078
    -4.5627  -4.5265   0.0150   0.0409   0.5090   1.0132   1.0374   1.2693
     1.4824   1.6034   1.9669   2.0766   2.2473   2.3614   2.4167   2.7888
     2.8879   3.2656   3.3385   3.4470   3.5962   3.6792   3.7089   3.7996
     3.8461   4.5637   5.9062   6.3212   6.3800   6.8401   6.8498   6.9396
     7.3049   7.6175

          k = 0.7622 0.1934 0.1485 ( 36503 PWs)   bands (ev):

   -44.1317 -44.1317 -22.2491 -22.2491 -22.2236 -22.2236 -22.0571 -22.0570
    -6.9104  -6.7747  -6.5222  -6.4888  -5.7253  -5.4497  -5.1951  -5.1218
    -4.5540  -4.5290   0.0176   0.2115   0.3831   0.9062   1.0117   1.2296
     1.4952   1.6261   1.8966   2.0608   2.1301   2.6225   2.6902   2.8472
     2.8882   3.0873   3.2715   3.3904   3.5271   3.6229   3.6556   3.9324
     3.9742   4.5339   5.6752   6.3460   6.6499   6.7454   6.9124   6.9779
     7.0819   7.5803

          k = 0.7622 0.1934-0.2971 ( 36522 PWs)   bands (ev):

   -44.1317 -44.1317 -22.2491 -22.2491 -22.2236 -22.2236 -22.0571 -22.0571
    -6.8492  -6.8492  -6.5043  -6.5043  -5.5879  -5.5879  -5.1564  -5.1564
    -4.5386  -4.5386   0.1577   0.1577   0.5537   0.5537   1.0826   1.0826
     1.5674   1.5674   2.0137   2.0137   2.3783   2.3783   2.8185   2.8185
     2.9892   2.9892   3.3244   3.3244   3.5948   3.5948   3.8822   3.8822
     4.0936   4.0936   6.1458   6.1458   6.4483   6.4483   6.9772   6.9772
     7.4289   7.4289

          k =-1.0162-0.2579 0.0000 ( 36506 PWs)   bands (ev):

   -44.1314 -44.1314 -22.2470 -22.2470 -22.2334 -22.2334 -22.0559 -22.0559
    -6.7131  -6.6930  -5.9889  -5.9778  -5.9349  -5.9274  -5.3383  -5.3377
    -4.5056  -4.4803  -0.0173   0.0054   0.3050   0.3265   1.0122   1.0213
     1.4684   1.6699   2.2335   2.3908   2.4000   2.4122   2.8018   2.8047
     2.8147   2.8436   3.2141   3.2603   3.3189   3.4149   3.4994   3.7123
     3.7798   4.0774   6.5503   6.5688   6.5733   6.6467   7.0250   7.1221
     7.1285   7.1512

          k =-1.0162-0.2579 0.1485 ( 36506 PWs)   bands (ev):

   -44.1314 -44.1314 -22.2470 -22.2470 -22.2334 -22.2334 -22.0559 -22.0559
    -6.7093  -6.6950  -6.0100  -6.0020  -5.9124  -5.9073  -5.3350  -5.3347
    -4.5053  -4.4874  -0.1145  -0.1076   0.5249   0.5320   1.0106   1.0277
     1.4644   1.5948   1.9890   2.0892   2.3745   2.3981   2.7026   2.7043
     2.9400   3.0303   3.1039   3.1939   3.5553   3.5727   3.6543   3.7547
     4.0283   4.1423   6.0233   6.0396   6.4870   6.5628   7.1023   7.1259
     7.3267   7.3760

          k =-1.0162-0.2579-0.2971 ( 36528 PWs)   bands (ev):

   -44.1314 -44.1314 -22.2470 -22.2470 -22.2334 -22.2334 -22.0559 -22.0559
    -6.7012  -6.7012  -6.0213  -6.0213  -5.8959  -5.8959  -5.3317  -5.3317
    -4.4998  -4.4998  -0.1744  -0.1744   0.7813   0.7813   0.9520   0.9520
     1.5284   1.5284   1.7561   1.7561   2.3743   2.3743   2.7697   2.7697
     2.9022   2.9022   3.1646   3.1646   3.6331   3.6331   3.8042   3.8042
     4.3765   4.3765   5.5762   5.5762   6.4403   6.4403   7.1362   7.1362
     7.4309   7.4309

          k = 0.5081 0.0000 0.0000 ( 36503 PWs)   bands (ev):

   -44.1326 -44.1326 -22.2539 -22.2539 -22.2002 -22.2002 -22.0599 -22.0598
    -7.4005  -7.0378  -6.8922  -6.6828  -6.0633  -5.2623  -5.0586  -4.6814
    -4.6452  -4.4442   0.4229   0.6111   0.6244   1.2009   1.2131   1.3997
     1.6593   1.6923   1.9579   2.1134   2.1721   2.2223   2.4223   3.3641
     3.4823   3.4942   3.5723   3.5846   3.7789   3.9104   3.9305   4.2151
     4.4254   5.0642   5.5843   6.0277   6.1302   6.5488   6.5538   6.9826
     7.4614   7.5793

          k = 0.5081 0.0000 0.1485 ( 36453 PWs)   bands (ev):

   -44.1326 -44.1326 -22.2539 -22.2539 -22.2002 -22.2002 -22.0599 -22.0598
    -7.3685  -7.1423  -6.8123  -6.6949  -5.9835  -5.4837  -4.8867  -4.6698
    -4.6500  -4.4740   0.4194   0.6331   0.7606   1.0100   1.2468   1.3756
     1.4029   1.5436   2.0167   2.1050   2.3716   2.4130   2.8000   3.3888
     3.4583   3.4766   3.4945   3.5969   3.7012   3.8215   3.8372   4.2713
     4.3309   4.5012   6.1313   6.1867   6.3355   6.5408   6.6115   6.8440
     7.3051   7.5170

          k = 0.5081 0.0000-0.2971 ( 36452 PWs)   bands (ev):

   -44.1326 -44.1326 -22.2539 -22.2539 -22.2002 -22.2002 -22.0599 -22.0599
    -7.2768  -7.2768  -6.7349  -6.7349  -5.7689  -5.7689  -4.7415  -4.7415
    -4.5595  -4.5595   0.5168   0.5168   1.0303   1.0303   1.1113   1.1113
     1.3793   1.3793   2.0606   2.0606   2.6996   2.6996   3.1499   3.1499
     3.4022   3.4022   3.5715   3.5715   3.7397   3.7397   3.8336   3.8336
     4.3327   4.3327   6.3953   6.3953   6.5233   6.5233   6.8485   6.8485
     7.1413   7.1413

          k = 0.7622 0.0645 0.0000 ( 36505 PWs)   bands (ev):

   -44.1317 -44.1317 -22.2491 -22.2491 -22.2236 -22.2236 -22.0571 -22.0570
    -6.9417  -6.7349  -6.5331  -6.4751  -5.7843  -5.3843  -5.2161  -5.1071
    -4.5534  -4.5368   0.0110   0.0510   0.5245   1.0257   1.0449   1.2834
     1.4451   1.5651   1.9375   2.0952   2.2602   2.3424   2.3558   2.7635
     2.8762   3.3147   3.3591   3.4816   3.6053   3.6321   3.7069   3.8280
     3.8624   4.5975   5.9037   6.3152   6.3726   6.8215   6.8976   6.8982
     7.3208   7.6331

          k = 0.7622 0.0645 0.1485 ( 36509 PWs)   bands (ev):

   -44.1317 -44.1317 -22.2491 -22.2491 -22.2236 -22.2236 -22.0571 -22.0570
    -6.9184  -6.7762  -6.5196  -6.4812  -5.7257  -5.4487  -5.1941  -5.1209
    -4.5475  -4.5363   0.0226   0.2116   0.3923   0.9036   1.0316   1.2448
     1.4622   1.6257   1.9260   1.9924   2.0586   2.6379   2.6768   2.8347
     2.8697   3.0904   3.3260   3.3982   3.5401   3.6139   3.6551   3.9585
     3.9982   4.5308   5.7005   6.3252   6.6612   6.7455   6.9229   6.9800
     7.0559   7.5997

          k = 0.7622 0.0645-0.2971 ( 36472 PWs)   bands (ev):

   -44.1317 -44.1317 -22.2491 -22.2491 -22.2236 -22.2236 -22.0571 -22.0571
    -6.8551  -6.8551  -6.4977  -6.4977  -5.5886  -5.5886  -5.1550  -5.1550
    -4.5388  -4.5388   0.1651   0.1651   0.5469   0.5469   1.1053   1.1053
     1.5610   1.5610   1.9634   1.9634   2.3553   2.3553   2.8202   2.8202
     2.9753   2.9753   3.3834   3.3834   3.5920   3.5920   3.8686   3.8686
     4.1124   4.1124   6.1714   6.1714   6.4489   6.4489   6.9449   6.9449
     7.4564   7.4564

          k = 1.0162 0.1290 0.0000 ( 36514 PWs)   bands (ev):

   -44.1314 -44.1314 -22.2470 -22.2470 -22.2334 -22.2334 -22.0559 -22.0559
    -6.7131  -6.6930  -5.9887  -5.9781  -5.9349  -5.9274  -5.3383  -5.3377
    -4.5056  -4.4803  -0.0231   0.0113   0.3009   0.3307   1.0057   1.0289
     1.4744   1.6606   2.2326   2.3911   2.3935   2.4127   2.7951   2.8063
     2.8104   2.8712   3.2318   3.2435   3.3015   3.4033   3.5398   3.6920
     3.7654   4.0911   6.5395   6.5637   6.5847   6.6534   7.0436   7.1232
     7.1306   7.1382

          k = 1.0162 0.1290 0.1485 ( 36524 PWs)   bands (ev):

   -44.1314 -44.1314 -22.2470 -22.2470 -22.2334 -22.2334 -22.0559 -22.0559
    -6.7093  -6.6950  -6.0099  -6.0021  -5.9123  -5.9074  -5.3351  -5.3346
    -4.5053  -4.4874  -0.1168  -0.1057   0.5262   0.5313   1.0127   1.0260
     1.4697   1.5896   2.0011   2.0727   2.3739   2.3932   2.6616   2.7520
     2.9525   3.0417   3.0940   3.1853   3.5287   3.6086   3.6526   3.7454
     4.0083   4.1617   6.0158   6.0506   6.4839   6.5654   7.1078   7.1249
     7.3340   7.3693

          k = 1.0162 0.1290-0.2971 ( 36516 PWs)   bands (ev):

   -44.1314 -44.1314 -22.2470 -22.2470 -22.2334 -22.2334 -22.0559 -22.0559
    -6.7012  -6.7012  -6.0213  -6.0213  -5.8959  -5.8959  -5.3317  -5.3317
    -4.4998  -4.4998  -0.1745  -0.1745   0.7818   0.7818   0.9519   0.9519
     1.5294   1.5294   1.7569   1.7569   2.3654   2.3654   2.7538   2.7538
     2.9456   2.9456   3.1433   3.1433   3.6365   3.6365   3.8008   3.8008
     4.3770   4.3770   5.5785   5.5785   6.4397   6.4397   7.1378   7.1378
     7.4316   7.4316

          k =-0.7622-0.3224 0.0000 ( 36511 PWs)   bands (ev):

   -44.1317 -44.1317 -22.2491 -22.2491 -22.2236 -22.2236 -22.0571 -22.0570
    -6.9201  -6.7415  -6.5295  -6.4937  -5.7847  -5.3921  -5.2145  -5.1089
    -4.5701  -4.5178   0.0209   0.0268   0.4874   0.9812   1.0538   1.2519
     1.5040   1.6668   2.0273   2.0533   2.2662   2.3872   2.4475   2.8252
     2.9008   3.2069   3.3221   3.4473   3.5687   3.6550   3.6659   3.8050
     3.8733   4.5067   5.9097   6.3123   6.4188   6.7580   6.8934   7.0058
     7.2728   7.5979

          k =-0.7622-0.3224 0.1485 ( 36492 PWs)   bands (ev):

   -44.1317 -44.1317 -22.2491 -22.2491 -22.2236 -22.2236 -22.0571 -22.0570
    -6.8983  -6.7731  -6.5261  -6.4999  -5.7247  -5.4510  -5.1965  -5.1231
    -4.5591  -4.5229   0.0098   0.2127   0.3694   0.9023   0.9999   1.2090
     1.5311   1.6300   1.8783   2.1635   2.2127   2.6076   2.6907   2.8660
     2.9056   3.1051   3.2072   3.3747   3.4758   3.6052   3.7003   3.8816
     3.9517   4.5368   5.6415   6.3796   6.6230   6.7431   6.8826   7.0206
     7.1104   7.5425

          k =-0.7622-0.3224-0.2971 ( 36508 PWs)   bands (ev):

   -44.1317 -44.1317 -22.2491 -22.2491 -22.2236 -22.2236 -22.0571 -22.0571
    -6.8405  -6.8405  -6.5141  -6.5141  -5.5870  -5.5870  -5.1585  -5.1585
    -4.5382  -4.5382   0.1474   0.1474   0.5629   0.5629   1.0559   1.0559
     1.5757   1.5757   2.0704   2.0704   2.4300   2.4300   2.8171   2.8171
     3.0097   3.0097   3.2405   3.2405   3.5933   3.5933   3.8846   3.8846
     4.0795   4.0795   6.1126   6.1126   6.4461   6.4461   7.0306   7.0306
     7.3820   7.3820

          k =-0.5081-0.2579 0.0000 ( 36480 PWs)   bands (ev):

   -44.1326 -44.1326 -22.2539 -22.2539 -22.2002 -22.2002 -22.0599 -22.0598
    -7.3864  -7.0354  -6.8894  -6.6965  -6.0757  -5.2617  -5.0684  -4.6953
    -4.6272  -4.4458   0.4041   0.5958   0.6545   1.2167   1.2794   1.4871
     1.6560   1.7102   2.0071   2.0849   2.1644   2.2956   2.4232   3.3898
     3.3963   3.4608   3.5466   3.5720   3.7494   3.7783   3.9440   4.1008
     4.4145   5.0757   5.5669   6.0013   6.1129   6.6857   6.7266   6.8619
     7.3972   7.5320

          k =-0.5081-0.2579 0.1485 ( 36485 PWs)   bands (ev):

   -44.1326 -44.1326 -22.2539 -22.2539 -22.2002 -22.2002 -22.0599 -22.0598
    -7.3548  -7.1340  -6.8181  -6.7087  -5.9921  -5.4840  -4.9018  -4.6645
    -4.6512  -4.4702   0.4125   0.6495   0.7557   1.0004   1.2797   1.3781
     1.5157   1.6213   2.0185   2.0800   2.3299   2.5263   2.8130   3.3313
     3.4150   3.4549   3.5532   3.5630   3.6157   3.7317   3.8479   4.1508
     4.2806   4.5212   6.1241   6.1763   6.2809   6.6915   6.7400   6.7533
     7.2281   7.4904

          k =-0.5081-0.2579-0.2971 ( 36478 PWs)   bands (ev):

   -44.1326 -44.1326 -22.2539 -22.2539 -22.2002 -22.2002 -22.0599 -22.0599
    -7.2648  -7.2648  -6.7472  -6.7472  -5.7718  -5.7718  -4.7546  -4.7546
    -4.5502  -4.5502   0.5254   0.5254   1.0269   1.0269   1.0844   1.0844
     1.5124   1.5124   2.0490   2.0490   2.7350   2.7350   3.1745   3.1745
     3.3852   3.3852   3.4899   3.4899   3.6870   3.6870   3.8317   3.8317
     4.2626   4.2626   6.3430   6.3430   6.6359   6.6359   6.7940   6.7940
     7.1447   7.1447

          k =-0.2541-0.1934 0.0000 ( 36410 PWs)   bands (ev):

   -44.1335 -44.1335 -22.2586 -22.2586 -22.1768 -22.1768 -22.0627 -22.0626
    -7.7274  -7.3634  -7.0535  -6.8188  -6.2692  -5.3646  -4.9607  -4.8063
    -4.7347  -3.9899   0.4569   0.8829   0.9659   1.2631   1.2720   1.4403
     1.8215   1.8797   2.0203   2.5331   2.5810   3.2200   3.2841   3.6550
     3.6853   3.7287   3.7763   3.8651   3.8851   4.1974   4.2598   4.2824
     4.3897   4.6008   5.8690   6.0068   6.2853   6.5894   6.6332   6.7727
     6.9943   7.0940

          k =-0.2541-0.1934 0.1485 ( 36427 PWs)   bands (ev):

   -44.1335 -44.1335 -22.2586 -22.2586 -22.1768 -22.1768 -22.0627 -22.0626
    -7.6934  -7.4567  -6.9773  -6.8341  -6.1862  -5.6155  -4.8351  -4.7504
    -4.6621  -4.0813   0.5078   0.9363   0.9598   1.0350   1.2180   1.4573
     1.7860   2.1047   2.2797   2.5299   2.5608   2.9331   3.3576   3.3909
     3.5757   3.6646   3.7870   3.8988   3.9831   4.1278   4.2796   4.2910
     4.6751   4.8575   5.8293   5.9492   6.1651   6.3324   6.4873   6.7394
     7.1846   7.2884

          k =-0.2541-0.1934-0.2971 ( 36422 PWs)   bands (ev):

   -44.1335 -44.1335 -22.2586 -22.2586 -22.1768 -22.1768 -22.0627 -22.0627
    -7.5960  -7.5960  -6.8843  -6.8843  -5.9493  -5.9493  -4.7879  -4.7879
    -4.3300  -4.3300   0.6758   0.6758   1.0856   1.0856   1.1845   1.1845
     2.1342   2.1342   2.4694   2.4694   2.6700   2.6700   3.2047   3.2047
     3.6082   3.6082   3.8206   3.8206   4.0868   4.0868   4.2939   4.2939
     5.0464   5.0464   5.7404   5.7404   6.1519   6.1519   6.5204   6.5204
     7.3906   7.3906

          k = 0.0000-0.1290 0.0000 ( 36417 PWs)   bands (ev):

   -44.1339 -44.1339 -22.2606 -22.2606 -22.1670 -22.1670 -22.0639 -22.0638
    -7.8486  -7.4765  -7.1265  -6.8632  -6.3260  -5.4093  -4.9419  -4.8474
    -4.7819  -3.8369   0.3642   0.7535   0.8082   1.1271   1.4690   1.5574
     2.2764   2.3402   2.5808   2.7420   2.9485   3.0159   3.2830   3.4023
     3.6417   3.7781   3.8501   4.0132   4.2429   4.2824   4.3078   4.6731
     4.8468   5.4610   5.6585   5.8322   5.8613   5.9977   6.2136   6.8240
     6.9845   7.2379

          k = 0.0000-0.1290 0.1485 ( 36419 PWs)   bands (ev):

   -44.1339 -44.1339 -22.2606 -22.2606 -22.1670 -22.1670 -22.0639 -22.0638
    -7.8138  -7.5714  -7.0428  -6.8802  -6.2466  -5.6688  -4.8527  -4.7942
    -4.6462  -3.9521   0.4284   0.8442   0.9105   1.0143   1.0974   1.9232
     2.0801   2.3040   2.4970   2.8113   2.9346   3.1265   3.3669   3.4181
     3.6932   3.8403   3.8432   3.9923   4.1784   4.3040   4.3282   4.6753
     4.7718   4.9826   5.8169   5.9688   5.9966   6.0267   6.5382   6.6296
     6.8073   7.1794

          k = 0.0000-0.1290-0.2971 ( 36464 PWs)   bands (ev):

   -44.1339 -44.1339 -22.2606 -22.2606 -22.1670 -22.1670 -22.0638 -22.0638
    -7.7141  -7.7141  -6.9372  -6.9372  -6.0114  -6.0114  -4.8223  -4.8223
    -4.2546  -4.2546   0.6453   0.6453   0.9468   0.9468   1.3685   1.3685
     2.3828   2.3828   2.6530   2.6530   2.8901   2.8901   3.4828   3.4828
     3.8357   3.8357   4.0089   4.0089   4.2513   4.2513   4.4070   4.4070
     4.6962   4.6962   5.9490   5.9490   6.2398   6.2398   6.4233   6.4233
     6.9920   6.9920

          k = 1.0162 0.0000 0.0000 ( 36499 PWs)   bands (ev):

   -44.1314 -44.1314 -22.2470 -22.2470 -22.2334 -22.2334 -22.0559 -22.0559
    -6.7131  -6.6930  -5.9884  -5.9783  -5.9349  -5.9274  -5.3383  -5.3377
    -4.5056  -4.4803  -0.0274   0.0157   0.2978   0.3340   1.0022   1.0336
     1.4811   1.6505   2.2316   2.3880   2.3915   2.4130   2.7909   2.8055
     2.8101   2.8939   3.2534   3.2562   3.2572   3.3872   3.5954   3.6541
     3.7527   4.1036   6.5326   6.5592   6.5921   6.6596   7.0717   7.1158
     7.1244   7.1327

          k = 1.0162 0.0000 0.1485 ( 36485 PWs)   bands (ev):

   -44.1314 -44.1314 -22.2470 -22.2470 -22.2334 -22.2334 -22.0559 -22.0559
    -6.7093  -6.6950  -6.0097  -6.0022  -5.9123  -5.9074  -5.3351  -5.3346
    -4.5053  -4.4874  -0.1184  -0.1044   0.5284   0.5296   1.0158   1.0232
     1.4757   1.5837   2.0255   2.0437   2.3798   2.3821   2.6479   2.7699
     2.9725   3.0636   3.0692   3.1761   3.5173   3.6231   3.6616   3.7316
     3.9924   4.1771   6.0117   6.0582   6.4809   6.5679   7.1153   7.1220
     7.3491   7.3548

          k = 1.0162 0.0000-0.2971 ( 36514 PWs)   bands (ev):

   -44.1314 -44.1314 -22.2470 -22.2470 -22.2334 -22.2334 -22.0559 -22.0559
    -6.7012  -6.7012  -6.0213  -6.0213  -5.8959  -5.8959  -5.3317  -5.3317
    -4.4998  -4.4998  -0.1747  -0.1747   0.7823   0.7823   0.9519   0.9519
     1.5303   1.5303   1.7577   1.7577   2.3568   2.3568   2.7428   2.7428
     2.9938   2.9938   3.1121   3.1121   3.6399   3.6399   3.7973   3.7973
     4.3774   4.3774   5.5809   5.5809   6.4392   6.4392   7.1394   7.1394
     7.4323   7.4323

          k = 1.2703 0.0645 0.0000 ( 36468 PWs)   bands (ev):

   -44.1317 -44.1317 -22.2491 -22.2491 -22.2236 -22.2236 -22.0571 -22.0570
    -6.9099  -6.7455  -6.5280  -6.5014  -5.7849  -5.3953  -5.2138  -5.1096
    -4.5739  -4.5130   0.0171   0.0252   0.4723   0.9642   1.0652   1.2403
     1.5082   1.7129   2.0384   2.0877   2.2946   2.4053   2.4341   2.8527
     2.9054   3.1592   3.3485   3.4922   3.5195   3.5740   3.6620   3.7552
     3.9556   4.4553   5.9123   6.3074   6.4537   6.6987   6.9272   7.0649
     7.2368   7.5956

          k = 1.2703 0.0645 0.1485 ( 36490 PWs)   bands (ev):

   -44.1317 -44.1317 -22.2491 -22.2491 -22.2236 -22.2236 -22.0571 -22.0570
    -6.8889  -6.7726  -6.5288  -6.5080  -5.7243  -5.4520  -5.1974  -5.1241
    -4.5617  -4.5196   0.0040   0.2147   0.3592   0.8949   1.0005   1.1955
     1.5499   1.6359   1.8718   2.2380   2.2760   2.5944   2.6799   2.8752
     2.9192   3.1324   3.1661   3.3556   3.4540   3.5575   3.7586   3.8242
     3.9441   4.5376   5.6192   6.4085   6.5935   6.7409   6.8672   7.0684
     7.1237   7.5076

          k = 1.2703 0.0645-0.2971 ( 36480 PWs)   bands (ev):

   -44.1317 -44.1317 -22.2491 -22.2491 -22.2236 -22.2236 -22.0571 -22.0571
    -6.8340  -6.8340  -6.5214  -6.5214  -5.5864  -5.5864  -5.1600  -5.1600
    -4.5379  -4.5379   0.1403   0.1403   0.5690   0.5690   1.0400   1.0400
     1.5817   1.5817   2.0985   2.0985   2.4845   2.4845   2.8194   2.8194
     3.0243   3.0243   3.1741   3.1741   3.5900   3.5900   3.8724   3.8724
     4.0808   4.0808   6.0909   6.0909   6.4440   6.4440   7.0768   7.0768
     7.3398   7.3398

          k =-0.5081-0.3869 0.0000 ( 36463 PWs)   bands (ev):

   -44.1326 -44.1326 -22.2539 -22.2539 -22.2002 -22.2002 -22.0599 -22.0598
    -7.3759  -7.0338  -6.8886  -6.7053  -6.0847  -5.2613  -5.0754  -4.7005
    -4.6191  -4.4469   0.3915   0.6048   0.6487   1.2272   1.3454   1.5578
     1.6562   1.7177   2.0454   2.0686   2.1891   2.3041   2.4186   3.2748
     3.4197   3.4623   3.4855   3.6269   3.6995   3.7485   3.8616   4.0968
     4.4023   5.0799   5.5575   5.9102   6.1789   6.7767   6.7962   6.8505
     7.3211   7.5169

          k =-0.5081-0.3869 0.1485 ( 36477 PWs)   bands (ev):

   -44.1326 -44.1326 -22.2539 -22.2539 -22.2002 -22.2002 -22.0599 -22.0598
    -7.3447  -7.1280  -6.8233  -6.7180  -5.9982  -5.4841  -4.9119  -4.6619
    -4.6514  -4.4677   0.4079   0.6608   0.7483   0.9943   1.3078   1.3857
     1.6030   1.6922   2.0074   2.0667   2.3307   2.5621   2.8235   3.2276
     3.4161   3.4515   3.4918   3.5715   3.6091   3.7251   3.8156   4.1148
     4.2220   4.5317   6.0735   6.2008   6.2595   6.6603   6.7993   6.8785
     7.1542   7.4864

          k =-0.5081-0.3869-0.2971 ( 36492 PWs)   bands (ev):

   -44.1326 -44.1326 -22.2539 -22.2539 -22.2002 -22.2002 -22.0599 -22.0599
    -7.2559  -7.2559  -6.7563  -6.7563  -5.7737  -5.7737  -4.7632  -4.7632
    -4.5443  -4.5443   0.5309   0.5309   1.0232   1.0232   1.0727   1.0727
     1.6213   1.6213   2.0282   2.0282   2.7704   2.7704   3.1463   3.1463
     3.3590   3.3590   3.4498   3.4498   3.6835   3.6835   3.8239   3.8239
     4.2157   4.2157   6.3083   6.3083   6.6739   6.6739   6.7844   6.7844
     7.1651   7.1651

          k =-0.2541-0.3224 0.0000 ( 36485 PWs)   bands (ev):

   -44.1335 -44.1335 -22.2586 -22.2586 -22.1768 -22.1768 -22.0627 -22.0626
    -7.7174  -7.3617  -7.0458  -6.8276  -6.2884  -5.3667  -4.9727  -4.8105
    -4.7242  -3.9913   0.4827   0.8946   1.0868   1.2646   1.3118   1.5117
     1.8574   1.9167   2.0208   2.4597   2.5371   3.2426   3.3272   3.4855
     3.6036   3.6447   3.7483   3.8190   3.9238   4.1461   4.1474   4.2496
     4.3409   4.6036   5.9558   6.0332   6.3454   6.5847   6.7083   6.7929
     6.9206   7.0245

          k =-0.2541-0.3224 0.1485 ( 36445 PWs)   bands (ev):

   -44.1335 -44.1335 -22.2586 -22.2586 -22.1768 -22.1768 -22.0627 -22.0626
    -7.6836  -7.4510  -6.9767  -6.8428  -6.2009  -5.6182  -4.8557  -4.7451
    -4.6541  -4.0812   0.5304   0.9465   0.9809   1.1644   1.2921   1.4807
     1.8025   2.1081   2.3213   2.4633   2.5245   2.9195   3.3829   3.4310
     3.4817   3.5437   3.6697   3.8895   3.9143   4.0807   4.1943   4.2503
     4.6987   4.8346   5.8169   5.9820   6.1621   6.3646   6.5850   6.7434
     7.1434   7.2708

          k =-0.2541-0.3224-0.2971 ( 36442 PWs)   bands (ev):

   -44.1335 -44.1335 -22.2586 -22.2586 -22.1768 -22.1768 -22.0627 -22.0627
    -7.5875  -7.5875  -6.8910  -6.8910  -5.9563  -5.9563  -4.7947  -4.7947
    -4.3268  -4.3268   0.6918   0.6918   1.1728   1.1728   1.2254   1.2254
     2.1397   2.1397   2.4417   2.4417   2.6645   2.6645   3.2338   3.2338
     3.4609   3.4609   3.7956   3.7956   4.0407   4.0407   4.2302   4.2302
     5.0615   5.0615   5.6993   5.6993   6.1393   6.1393   6.6180   6.6180
     7.3681   7.3681

          k = 0.0000-0.2579 0.0000 ( 36445 PWs)   bands (ev):

   -44.1339 -44.1339 -22.2606 -22.2606 -22.1670 -22.1670 -22.0639 -22.0638
    -7.8397  -7.4750  -7.1169  -6.8716  -6.3466  -5.4125  -4.9552  -4.8524
    -4.7692  -3.8383   0.4015   0.7648   0.9194   1.1752   1.4948   1.6186
     2.2788   2.3421   2.5786   2.7598   2.9494   3.0376   3.3187   3.3872
     3.4340   3.6498   3.7511   3.9596   4.1540   4.1722   4.2431   4.6724
     4.8208   5.4127   5.7166   5.8505   5.9122   6.0728   6.3020   6.7836
     6.9848   7.1780

          k = 0.0000-0.2579 0.1485 ( 36452 PWs)   bands (ev):

   -44.1339 -44.1339 -22.2606 -22.2606 -22.1670 -22.1670 -22.0639 -22.0638
    -7.8051  -7.5663  -7.0400  -6.8881  -6.2630  -5.6727  -4.8728  -4.7875
    -4.6400  -3.9523   0.4619   0.9260   0.9517   1.0624   1.1451   1.9391
     2.1200   2.3065   2.4988   2.8231   2.9370   3.1269   3.3000   3.3783
     3.6299   3.6581   3.8185   3.9127   4.1718   4.1795   4.2076   4.6742
     4.7561   4.9726   5.8527   6.0139   6.0392   6.0504   6.5734   6.6082
     6.8095   7.1385

          k = 0.0000-0.2579-0.2971 ( 36454 PWs)   bands (ev):

   -44.1339 -44.1339 -22.2606 -22.2606 -22.1670 -22.1670 -22.0638 -22.0638
    -7.7065  -7.7065  -6.9420  -6.9420  -6.0200  -6.0200  -4.8282  -4.8282
    -4.2523  -4.2523   0.6790   0.6790   1.0325   1.0325   1.3865   1.3865
     2.3854   2.3854   2.6774   2.6774   2.8965   2.8965   3.3599   3.3599
     3.7742   3.7742   3.9909   3.9909   4.1161   4.1161   4.3893   4.3893
     4.6918   4.6918   5.9604   5.9604   6.2755   6.2755   6.4296   6.4296
     6.9740   6.9740

          k = 1.5243 0.0000 0.0000 ( 36439 PWs)   bands (ev):

   -44.1326 -44.1326 -22.2539 -22.2539 -22.2002 -22.2002 -22.0599 -22.0598
    -7.3714  -7.0331  -6.8887  -6.7086  -6.0885  -5.2611  -5.0784  -4.7021
    -4.6163  -4.4474   0.3864   0.6165   0.6368   1.2314   1.3777   1.5988
     1.6744   1.6865   2.0625   2.0695   2.2367   2.2652   2.4151   3.2302
     3.4129   3.4325   3.4947   3.6975   3.7183   3.7301   3.7397   4.1153
     4.3966   5.0802   5.5541   5.8719   6.2090   6.7405   6.8495   6.9056
     7.2754   7.5499

          k = 1.5243 0.0000 0.1485 ( 36476 PWs)   bands (ev):

   -44.1326 -44.1326 -22.2539 -22.2539 -22.2002 -22.2002 -22.0599 -22.0598
    -7.3403  -7.1255  -6.8257  -6.7217  -6.0008  -5.4841  -4.9160  -4.6612
    -4.6512  -4.4666   0.4061   0.6659   0.7436   0.9920   1.3200   1.3891
     1.6518   1.7180   2.0111   2.0492   2.3376   2.5650   2.8289   3.1852
     3.3773   3.4580   3.4747   3.6007   3.6332   3.7188   3.7620   4.1507
     4.1627   4.5360   6.0475   6.2136   6.2543   6.6304   6.8409   6.9465
     7.1068   7.4999

          k = 1.5243 0.0000-0.2971 ( 36508 PWs)   bands (ev):

   -44.1326 -44.1326 -22.2539 -22.2539 -22.2002 -22.2002 -22.0599 -22.0599
    -7.2521  -7.2521  -6.7602  -6.7602  -5.7745  -5.7745  -4.7667  -4.7667
    -4.5419  -4.5419   0.5330   0.5330   1.0215   1.0215   1.0687   1.0687
     1.6757   1.6757   2.0121   2.0121   2.7900   2.7900   3.1096   3.1096
     3.3583   3.3583   3.4427   3.4427   3.6820   3.6820   3.8184   3.8184
     4.1979   4.1979   6.2942   6.2942   6.6703   6.6703   6.7952   6.7952
     7.1806   7.1806

          k =-0.2541-0.4514 0.0000 ( 36444 PWs)   bands (ev):

   -44.1335 -44.1335 -22.2586 -22.2586 -22.1768 -22.1768 -22.0627 -22.0626
    -7.7100  -7.3605  -7.0410  -6.8329  -6.3025  -5.3681  -4.9814  -4.8109
    -4.7191  -3.9923   0.4933   0.9040   1.2060   1.2577   1.3312   1.5972
     1.8843   1.9552   2.0173   2.3788   2.4629   3.2172   3.3452   3.4148
     3.5042   3.6801   3.7712   3.8036   3.8459   4.1031   4.1187   4.1920
     4.3339   4.6051   6.0280   6.0462   6.3729   6.5802   6.7687   6.7990
     6.8340   7.0032

          k =-0.2541-0.4514 0.1485 ( 36461 PWs)   bands (ev):

   -44.1335 -44.1335 -22.2586 -22.2586 -22.1768 -22.1768 -22.0627 -22.0626
    -7.6765  -7.4470  -6.9769  -6.8484  -6.2115  -5.6201  -4.8684  -4.7426
    -4.6491  -4.0812   0.5391   0.9598   0.9853   1.2949   1.3470   1.5067
     1.8265   2.1092   2.3623   2.3881   2.4479   2.9210   3.3168   3.3476
     3.4505   3.5597   3.7273   3.8451   3.8788   3.9659   4.1863   4.2181
     4.7424   4.7959   5.8102   6.0064   6.1684   6.3498   6.6524   6.7413
     7.1280   7.2564

          k =-0.2541-0.4514-0.2971 ( 36490 PWs)   bands (ev):

   -44.1335 -44.1335 -22.2586 -22.2586 -22.1768 -22.1768 -22.0627 -22.0627
    -7.5813  -7.5813  -6.8959  -6.8959  -5.9612  -5.9612  -4.7995  -4.7995
    -4.3245  -4.3245   0.6976   0.6976   1.1904   1.1904   1.3268   1.3268
     2.1477   2.1477   2.3890   2.3890   2.6621   2.6621   3.2377   3.2377
     3.3557   3.3557   3.8238   3.8238   3.9822   3.9822   4.1991   4.1991
     5.0730   5.0730   5.6744   5.6744   6.1214   6.1214   6.6772   6.6772
     7.3554   7.3554

          k = 0.0000-0.3869 0.0000 ( 36477 PWs)   bands (ev):

   -44.1339 -44.1339 -22.2606 -22.2606 -22.1670 -22.1670 -22.0639 -22.0638
    -7.8305  -7.4735  -7.1080  -6.8786  -6.3682  -5.4155  -4.9695  -4.8512
    -4.7617  -3.8396   0.4247   0.7769   1.0713   1.2371   1.5192   1.6879
     2.2811   2.3459   2.5765   2.7790   2.9497   3.0744   3.1125   3.1483
     3.5385   3.6024   3.7236   3.9488   3.9856   4.0211   4.2432   4.6719
     4.7952   5.3851   5.7766   5.8690   5.9745   6.1189   6.3615   6.6993
     6.9850   7.1480

          k = 0.0000-0.3869 0.1485 ( 36452 PWs)   bands (ev):

   -44.1339 -44.1339 -22.2606 -22.2606 -22.1670 -22.1670 -22.0639 -22.0638
    -7.7962  -7.5613  -7.0378  -6.8952  -6.2797  -5.6764  -4.8896  -4.7834
    -4.6344  -3.9525   0.4801   0.9556   1.0224   1.1639   1.2265   1.9578
     2.1597   2.3089   2.5004   2.8361   2.9390   3.0162   3.1003   3.3300
     3.5599   3.6908   3.7932   3.9138   4.0420   4.0654   4.1647   4.6734
     4.7409   4.9696   5.8983   6.0509   6.0522   6.0737   6.5536   6.6021
     6.8117   7.1063

          k = 0.0000-0.3869-0.2971 ( 36454 PWs)   bands (ev):

   -44.1339 -44.1339 -22.2606 -22.2606 -22.1670 -22.1670 -22.0638 -22.0638
    -7.6987  -7.6987  -6.9471  -6.9471  -6.0284  -6.0284  -4.8340  -4.8340
    -4.2499  -4.2499   0.6936   0.6936   1.1637   1.1637   1.4055   1.4055
     2.3880   2.3880   2.6862   2.6862   2.9031   2.9031   3.1472   3.1472
     3.8083   3.8083   3.9726   3.9726   3.9973   3.9973   4.3682   4.3682
     4.6878   4.6878   5.9551   5.9551   6.3036   6.3036   6.4361   6.4361
     6.9455   6.9455

          k =-2.0325 0.0000 0.0000 ( 36452 PWs)   bands (ev):

   -44.1339 -44.1339 -22.2606 -22.2606 -22.1670 -22.1670 -22.0639 -22.0638
    -7.8266  -7.4729  -7.1046  -6.8811  -6.3775  -5.4167  -4.9755  -4.8498
    -4.7596  -3.8402   0.4303   0.7821   1.1910   1.2196   1.5288   1.7304
     2.2821   2.3485   2.5756   2.7874   2.9496   2.9827   3.0336   3.0953
     3.6078   3.6648   3.7120   3.8442   3.9457   3.9627   4.2432   4.6718
     4.7847   5.3769   5.8014   5.8767   6.0076   6.1331   6.3800   6.6501
     6.9851   7.1423

          k =-2.0325 0.0000 0.1485 ( 36456 PWs)   bands (ev):

   -44.1339 -44.1339 -22.2606 -22.2606 -22.1670 -22.1670 -22.0639 -22.0638
    -7.7925  -7.5592  -7.0372  -6.8978  -6.2868  -5.6778  -4.8960  -4.7821
    -4.6323  -3.9526   0.4836   0.9652   1.0435   1.2262   1.2761   1.9664
     2.1784   2.3100   2.5010   2.8419   2.9210   2.9397   2.9821   3.3511
     3.5391   3.7593   3.7826   3.9147   3.9537   4.0061   4.1616   4.6732
     4.7346   4.9694   5.9220   6.0577   6.0662   6.0743   6.5281   6.6057
     6.8126   7.0962

          k =-2.0325 0.0000-0.2971 ( 36460 PWs)   bands (ev):

   -44.1339 -44.1339 -22.2606 -22.2606 -22.1670 -22.1670 -22.0638 -22.0638
    -7.6954  -7.6954  -6.9493  -6.9493  -6.0319  -6.0319  -4.8365  -4.8365
    -4.2490  -4.2490   0.6959   0.6959   1.2340   1.2340   1.4136   1.4136
     2.3891   2.3891   2.6727   2.6727   2.9060   2.9060   3.0586   3.0586
     3.8518   3.8518   3.9299   3.9299   3.9648   3.9648   4.3604   4.3604
     4.6862   4.6862   5.9497   5.9497   6.3130   6.3130   6.4389   6.4389
     6.9323   6.9324

     the Fermi energy is     5.5344 ev

!    total energy              =   -4240.95403104 Ry

     total all-electron energy =   -150287.647726 Ry
     estimated scf accuracy    <          5.6E-13 Ry
     smearing contrib. (-TS)   =       0.00003167 Ry
     internal energy E=F+TS    =   -4240.95406272 Ry

     The total energy is F=E-TS. E is the sum of the following terms:
     one-electron contribution =    -166.83839149 Ry
     hartree contribution      =     116.89793539 Ry
     xc contribution           =    -201.49724535 Ry
     ewald contribution        =    -221.99679542 Ry
     one-center paw contrib.   =   -3767.51956586 Ry

     convergence has been achieved in  18 iterations

     Forces acting on atoms (cartesian axes, Ry/au):

     atom    1 type  1   force =     0.00000000   -0.00101050    0.00000000
     atom    2 type  1   force =     0.00000000    0.00101050    0.00000000
     atom    3 type  2   force =    -0.00000000    0.00010004    0.00000000
     atom    4 type  2   force =     0.00000000   -0.00010004    0.00000000
     atom    5 type  2   force =     0.00000000    0.00022431    0.00022700
     atom    6 type  2   force =     0.00000000   -0.00022431   -0.00022700
     atom    7 type  2   force =     0.00000000    0.00022431   -0.00022700
     atom    8 type  2   force =     0.00000000   -0.00022431    0.00022700
     atom    9 type  2   force =    -0.00000000    0.00136544    0.00135641
     atom   10 type  2   force =    -0.00000000   -0.00136544   -0.00135641
     atom   11 type  2   force =     0.00000000    0.00136544   -0.00135641
     atom   12 type  2   force =     0.00000000   -0.00136544    0.00135641

     Total force =     0.004158     Total SCF correction =     0.000001


     Computing stress (Cartesian axis) and pressure

          total   stress  (Ry/bohr**3)                   (kbar)     P=       -0.32
  -0.00000093   0.00000000   0.00000000           -0.14        0.00        0.00
  -0.00000000  -0.00000179   0.00000000           -0.00       -0.26        0.00
   0.00000000   0.00000000  -0.00000383            0.00        0.00       -0.56

 
     init_run     :     36.65s CPU     37.69s WALL (       1 calls)
     electrons    :   1726.93s CPU   1745.37s WALL (       1 calls)
     forces       :      6.73s CPU      6.99s WALL (       1 calls)
     stress       :     41.55s CPU     42.20s WALL (       1 calls)

     Called by init_run:
     wfcinit      :     31.67s CPU     31.95s WALL (       1 calls)
     potinit      :      1.53s CPU      1.58s WALL (       1 calls)
     hinit0       :      1.73s CPU      2.12s WALL (       1 calls)

     Called by electrons:
     c_bands      :   1405.11s CPU   1413.05s WALL (      19 calls)
     sum_band     :    287.73s CPU    293.94s WALL (      19 calls)
     v_of_rho     :      8.67s CPU      9.29s WALL (      19 calls)
     newd         :     18.00s CPU     21.92s WALL (      19 calls)
     PAW_pot      :      6.96s CPU      6.97s WALL (      19 calls)
     mix_rho      :      1.57s CPU      1.61s WALL (      19 calls)

     Called by c_bands:
     init_us_2    :     14.32s CPU     14.39s WALL (    2583 calls)
     cegterg      :   1323.90s CPU   1331.10s WALL (    1197 calls)

     Called by *egterg:
     cdiaghg      :     28.78s CPU     28.93s WALL (    8259 calls)
     h_psi        :   1145.32s CPU   1152.22s WALL (    8385 calls)
     s_psi        :     52.97s CPU     53.08s WALL (    8385 calls)
     g_psi        :      2.24s CPU      2.25s WALL (    7125 calls)

     Called by h_psi:
     h_psi:calbec :     44.58s CPU     44.68s WALL (    8385 calls)
     vloc_psi     :   1043.53s CPU   1050.15s WALL (    8385 calls)
     add_vuspsi   :     53.12s CPU     53.21s WALL (    8385 calls)

     General routines
     calbec       :     58.13s CPU     58.27s WALL (    9897 calls)
     fft          :      7.59s CPU      8.11s WALL (     271 calls)
     ffts         :      0.20s CPU      0.20s WALL (      38 calls)
     fftw         :   1037.13s CPU   1043.54s WALL (  426278 calls)
     interpolate  :      0.66s CPU      0.67s WALL (      19 calls)
 
     Parallel routines
     fft_scatt_xy :    281.92s CPU    283.65s WALL (  426587 calls)
     fft_scatt_yz :    189.24s CPU    190.83s WALL (  426587 calls)
 
     PWSCF        :  30m12.26s CPU  30m40.17s WALL

 
   This run was terminated on:  15:16:59  19Nov2021            

=------------------------------------------------------------------------------=
   JOB DONE.
=------------------------------------------------------------------------------=
