
     Program PWSCF v.6.7MaX starts on 19Nov2021 at 14:46:22 

     This program is part of the open-source Quantum ESPRESSO suite
     for quantum simulation of materials; please cite
         "P. Giannozzi et al., J. Phys.:Condens. Matter 21 395502 (2009);
         "P. Giannozzi et al., J. Phys.:Condens. Matter 29 465901 (2017);
          URL http://www.quantum-espresso.org", 
     in publications or presentations arising from this work. More details at
     http://www.quantum-espresso.org/quote

     Parallel version (MPI), running on    10 processors

     MPI processes distributed on     1 nodes
     R & G space division:  proc/nbgrp/npool/nimage =      10
     Waiting for input...
     Reading input from standard input

     Current dimensions of program PWSCF are:
     Max number of different atomic species (ntypx) = 10
     Max number of k-points (npk) =  40000
     Max angular momentum in pseudopotentials (lmaxx) =  3
     file Zr.pbe-spn-kjpaw_psl.1.0.0.UPF: wavefunction(s)  4S 4P renormalized
     file Te.pbe-n-kjpaw_psl.1.0.0.UPF: wavefunction(s)  5S 5P renormalized

     Subspace diagonalization in iterative solution of the eigenvalue problem:
     a serial algorithm will be used

     Message from routine setup:
     using ibrav=0 with symmetry is DISCOURAGED, use correct ibrav instead
 
     Parallelization info
     --------------------
     sticks:   dense  smooth     PW     G-vecs:    dense   smooth      PW
     Min         734     293     87               115340    29174    4753
     Max         735     295     88               115345    29176    4760
     Sum        7345    2937    873              1153415   291749   47557
 


     bravais-lattice index     =            0
     lattice parameter (alat)  =      15.5510  a.u.
     unit-cell volume          =    3018.5011 (a.u.)^3
     number of atoms/cell      =           12
     number of atomic types    =            2
     number of electrons       =        84.00
     number of Kohn-Sham states=           50
     kinetic-energy cutoff     =      80.0000  Ry
     charge density cutoff     =     800.0000  Ry
     scf convergence threshold =      1.0E-10
     mixing beta               =       0.7000
     number of iterations used =            8  plain     mixing
     Exchange-correlation= SLA  PW   PBX  PBC
                           (   1   4   3   4   0   0   0)

     celldm(1)=  15.551040  celldm(2)=   0.000000  celldm(3)=   0.000000
     celldm(4)=   0.000000  celldm(5)=   0.000000  celldm(6)=   0.000000

     crystal axes: (cart. coord. in units of alat)
               a(1) = (   0.246007  -0.969268   0.000000 )  
               a(2) = (   0.246007   0.969268   0.000000 )  
               a(3) = (   0.000000   0.000000   1.683031 )  

     reciprocal axes: (cart. coord. in units 2 pi/alat)
               b(1) = (  2.032465 -0.515853  0.000000 )  
               b(2) = (  2.032465  0.515853  0.000000 )  
               b(3) = (  0.000000  0.000000  0.594166 )  


     PseudoPot. # 1 for Zr read from file:
     pseudo/Zr.pbe-spn-kjpaw_psl.1.0.0.UPF
     MD5 check sum: 02112c41713a0468aff2bb39ef194e36
     Pseudo is Projector augmented-wave + core cor, Zval = 12.0
     Generated using &quot;atomic&quot; code by A. Dal Corso  v.6.2.2
     Shape of augmentation charge: PSQ
     Using radial grid of 1225 points,  6 beta functions with: 
                l(1) =   0
                l(2) =   0
                l(3) =   1
                l(4) =   1
                l(5) =   2
                l(6) =   2
     Q(r) pseudized with 0 coefficients 


     PseudoPot. # 2 for Te read from file:
     pseudo/Te.pbe-n-kjpaw_psl.1.0.0.UPF
     MD5 check sum: 66247bff2bd9dbf220fbb0bf5ab56e9d
     Pseudo is Projector augmented-wave + core cor, Zval =  6.0
     Generated using &quot;atomic&quot; code by A. Dal Corso  v.6.3
     Shape of augmentation charge: PSQ
     Using radial grid of 1245 points,  6 beta functions with: 
                l(1) =   0
                l(2) =   0
                l(3) =   1
                l(4) =   1
                l(5) =   2
                l(6) =   2
     Q(r) pseudized with 0 coefficients 


     atomic species   valence    mass     pseudopotential
        Zr            12.00    91.22000     Zr( 1.00)
        Te             6.00   127.60000     Te( 1.00)

      8 Sym. Ops., with inversion, found ( 4 have fractional translation)



   Cartesian axes

     site n.     atom                  positions (alat units)
         1           Zr  tau(   1) = (   0.0000000   0.6109037   0.4207578  )
         2           Zr  tau(   2) = (   0.2460067   0.3583645   1.2622733  )
         3           Te  tau(   3) = (   0.2460067   0.3343548   0.4207578  )
         4           Te  tau(   4) = (   0.0000000   0.6349133   1.2622733  )
         5           Te  tau(   5) = (   0.2460067   0.8074149   0.2504177  )
         6           Te  tau(   6) = (   0.0000000   0.1618532   1.4326133  )
         7           Te  tau(   7) = (   0.2460067   0.8074149   0.5910978  )
         8           Te  tau(   8) = (   0.0000000   0.1618532   1.0919333  )
         9           Te  tau(   9) = (   0.0000000   0.4056138   0.7220304  )
        10           Te  tau(  10) = (   0.2460067   0.5636544   0.9610006  )
        11           Te  tau(  11) = (   0.0000000   0.4056138   0.1194851  )
        12           Te  tau(  12) = (   0.2460067   0.5636544   1.5635460  )

     number of k points=    63  Methfessel-Paxton smearing, width (Ry)=  0.0030
                       cart. coord. in units 2pi/alat
        k(    1) = (   0.0000000   0.0000000   0.0000000), wk =   0.0078125
        k(    2) = (   0.0000000   0.0000000   0.1485415), wk =   0.0156250
        k(    3) = (   0.0000000   0.0000000  -0.2970830), wk =   0.0078125
        k(    4) = (   0.2540581   0.0644816   0.0000000), wk =   0.0312500
        k(    5) = (   0.2540581   0.0644816   0.1485415), wk =   0.0625000
        k(    6) = (   0.2540581   0.0644816  -0.2970830), wk =   0.0312500
        k(    7) = (   0.5081162   0.1289633   0.0000000), wk =   0.0312500
        k(    8) = (   0.5081162   0.1289633   0.1485415), wk =   0.0625000
        k(    9) = (   0.5081162   0.1289633  -0.2970830), wk =   0.0312500
        k(   10) = (   0.7621743   0.1934449   0.0000000), wk =   0.0312500
        k(   11) = (   0.7621743   0.1934449   0.1485415), wk =   0.0625000
        k(   12) = (   0.7621743   0.1934449  -0.2970830), wk =   0.0312500
        k(   13) = (  -1.0162324  -0.2579266   0.0000000), wk =   0.0156250
        k(   14) = (  -1.0162324  -0.2579266   0.1485415), wk =   0.0312500
        k(   15) = (  -1.0162324  -0.2579266  -0.2970830), wk =   0.0156250
        k(   16) = (   0.5081162   0.0000000   0.0000000), wk =   0.0156250
        k(   17) = (   0.5081162   0.0000000   0.1485415), wk =   0.0312500
        k(   18) = (   0.5081162   0.0000000  -0.2970830), wk =   0.0156250
        k(   19) = (   0.7621743   0.0644816   0.0000000), wk =   0.0312500
        k(   20) = (   0.7621743   0.0644816   0.1485415), wk =   0.0625000
        k(   21) = (   0.7621743   0.0644816  -0.2970830), wk =   0.0312500
        k(   22) = (   1.0162324   0.1289633   0.0000000), wk =   0.0312500
        k(   23) = (   1.0162324   0.1289633   0.1485415), wk =   0.0625000
        k(   24) = (   1.0162324   0.1289633  -0.2970830), wk =   0.0312500
        k(   25) = (  -0.7621743  -0.3224082   0.0000000), wk =   0.0312500
        k(   26) = (  -0.7621743  -0.3224082   0.1485415), wk =   0.0625000
        k(   27) = (  -0.7621743  -0.3224082  -0.2970830), wk =   0.0312500
        k(   28) = (  -0.5081162  -0.2579266   0.0000000), wk =   0.0312500
        k(   29) = (  -0.5081162  -0.2579266   0.1485415), wk =   0.0625000
        k(   30) = (  -0.5081162  -0.2579266  -0.2970830), wk =   0.0312500
        k(   31) = (  -0.2540581  -0.1934449   0.0000000), wk =   0.0312500
        k(   32) = (  -0.2540581  -0.1934449   0.1485415), wk =   0.0625000
        k(   33) = (  -0.2540581  -0.1934449  -0.2970830), wk =   0.0312500
        k(   34) = (   0.0000000  -0.1289633   0.0000000), wk =   0.0156250
        k(   35) = (   0.0000000  -0.1289633   0.1485415), wk =   0.0312500
        k(   36) = (   0.0000000  -0.1289633  -0.2970830), wk =   0.0156250
        k(   37) = (   1.0162324   0.0000000   0.0000000), wk =   0.0156250
        k(   38) = (   1.0162324   0.0000000   0.1485415), wk =   0.0312500
        k(   39) = (   1.0162324   0.0000000  -0.2970830), wk =   0.0156250
        k(   40) = (   1.2702905   0.0644816   0.0000000), wk =   0.0312500
        k(   41) = (   1.2702905   0.0644816   0.1485415), wk =   0.0625000
        k(   42) = (   1.2702905   0.0644816  -0.2970830), wk =   0.0312500
        k(   43) = (  -0.5081162  -0.3868899   0.0000000), wk =   0.0312500
        k(   44) = (  -0.5081162  -0.3868899   0.1485415), wk =   0.0625000
        k(   45) = (  -0.5081162  -0.3868899  -0.2970830), wk =   0.0312500
        k(   46) = (  -0.2540581  -0.3224082   0.0000000), wk =   0.0312500
        k(   47) = (  -0.2540581  -0.3224082   0.1485415), wk =   0.0625000
        k(   48) = (  -0.2540581  -0.3224082  -0.2970830), wk =   0.0312500
        k(   49) = (   0.0000000  -0.2579266   0.0000000), wk =   0.0156250
        k(   50) = (   0.0000000  -0.2579266   0.1485415), wk =   0.0312500
        k(   51) = (   0.0000000  -0.2579266  -0.2970830), wk =   0.0156250
        k(   52) = (   1.5243485   0.0000000   0.0000000), wk =   0.0156250
        k(   53) = (   1.5243485   0.0000000   0.1485415), wk =   0.0312500
        k(   54) = (   1.5243485   0.0000000  -0.2970830), wk =   0.0156250
        k(   55) = (  -0.2540581  -0.4513715   0.0000000), wk =   0.0312500
        k(   56) = (  -0.2540581  -0.4513715   0.1485415), wk =   0.0625000
        k(   57) = (  -0.2540581  -0.4513715  -0.2970830), wk =   0.0312500
        k(   58) = (   0.0000000  -0.3868899   0.0000000), wk =   0.0156250
        k(   59) = (   0.0000000  -0.3868899   0.1485415), wk =   0.0312500
        k(   60) = (   0.0000000  -0.3868899  -0.2970830), wk =   0.0156250
        k(   61) = (  -2.0324647   0.0000000   0.0000000), wk =   0.0078125
        k(   62) = (  -2.0324647   0.0000000   0.1485415), wk =   0.0156250
        k(   63) = (  -2.0324647   0.0000000  -0.2970830), wk =   0.0078125

     Dense  grid:  1153415 G-vectors     FFT dimensions: ( 144, 144, 240)

     Smooth grid:   291749 G-vectors     FFT dimensions: (  90,  90, 150)

     Estimated max dynamical RAM per process >     657.19 MB

     Estimated total dynamical RAM >       6.42 GB

     Initial potential from superposition of free atoms

     starting charge   83.99353, renormalised to   84.00000
     Starting wfcs are   66 randomized atomic wfcs
     Checking if some PAW data can be deallocated... 

     total cpu time spent up to now is       42.9 secs

     Self-consistent Calculation

     iteration #  1     ecut=    80.00 Ry     beta= 0.70
     Davidson diagonalization with overlap
     ethr =  1.00E-02,  avg # of iterations =  2.0

     Threshold (ethr) on eigenvalues was too large:
     Diagonalizing with lowered threshold

     Davidson diagonalization with overlap
     ethr =  3.81E-04,  avg # of iterations =  4.1

     total cpu time spent up to now is      204.1 secs

     total energy              =   -4240.71811828 Ry
     estimated scf accuracy    <       0.42747489 Ry

     iteration #  2     ecut=    80.00 Ry     beta= 0.70
     Davidson diagonalization with overlap
     ethr =  5.09E-04,  avg # of iterations =  7.5

     total cpu time spent up to now is      317.2 secs

     total energy              =   -4240.62313709 Ry
     estimated scf accuracy    <       2.17696197 Ry

     iteration #  3     ecut=    80.00 Ry     beta= 0.70
     Davidson diagonalization with overlap
     ethr =  5.09E-04,  avg # of iterations =  5.1

     total cpu time spent up to now is      412.9 secs

     total energy              =   -4240.91568157 Ry
     estimated scf accuracy    <       0.02193954 Ry

     iteration #  4     ecut=    80.00 Ry     beta= 0.70
     Davidson diagonalization with overlap
     c_bands:  2 eigenvalues not converged
     c_bands:  1 eigenvalues not converged
     c_bands:  1 eigenvalues not converged
     c_bands:  1 eigenvalues not converged
     c_bands:  1 eigenvalues not converged
     c_bands:  1 eigenvalues not converged
     c_bands:  1 eigenvalues not converged
     c_bands:  2 eigenvalues not converged
     ethr =  2.61E-05,  avg # of iterations = 15.6

     total cpu time spent up to now is      577.1 secs

     total energy              =   -4240.93462227 Ry
     estimated scf accuracy    <       0.11453034 Ry

     iteration #  5     ecut=    80.00 Ry     beta= 0.70
     Davidson diagonalization with overlap
     ethr =  2.61E-05,  avg # of iterations =  4.7

     total cpu time spent up to now is      661.5 secs

     total energy              =   -4240.93749150 Ry
     estimated scf accuracy    <       0.02624409 Ry

     iteration #  6     ecut=    80.00 Ry     beta= 0.70
     Davidson diagonalization with overlap
     ethr =  2.61E-05,  avg # of iterations =  2.8

     total cpu time spent up to now is      735.4 secs

     total energy              =   -4240.93833192 Ry
     estimated scf accuracy    <       0.00434995 Ry

     iteration #  7     ecut=    80.00 Ry     beta= 0.70
     Davidson diagonalization with overlap
     c_bands:  1 eigenvalues not converged
     c_bands:  1 eigenvalues not converged
     c_bands:  1 eigenvalues not converged
     ethr =  5.18E-06,  avg # of iterations = 11.6

     total cpu time spent up to now is      853.0 secs

     total energy              =   -4240.94046141 Ry
     estimated scf accuracy    <       0.00273774 Ry

     iteration #  8     ecut=    80.00 Ry     beta= 0.70
     Davidson diagonalization with overlap
     c_bands:  1 eigenvalues not converged
     ethr =  3.26E-06,  avg # of iterations =  3.1

     total cpu time spent up to now is      924.0 secs

     total energy              =   -4240.94046758 Ry
     estimated scf accuracy    <       0.00064663 Ry

     iteration #  9     ecut=    80.00 Ry     beta= 0.70
     Davidson diagonalization with overlap
     ethr =  7.70E-07,  avg # of iterations =  5.7

     total cpu time spent up to now is     1007.3 secs

     total energy              =   -4240.94059673 Ry
     estimated scf accuracy    <       0.00001055 Ry

     iteration # 10     ecut=    80.00 Ry     beta= 0.70
     Davidson diagonalization with overlap
     c_bands:  1 eigenvalues not converged
     c_bands:  1 eigenvalues not converged
     ethr =  1.26E-08,  avg # of iterations = 10.8

     total cpu time spent up to now is     1138.4 secs

     total energy              =   -4240.94062123 Ry
     estimated scf accuracy    <       0.00001317 Ry

     iteration # 11     ecut=    80.00 Ry     beta= 0.70
     Davidson diagonalization with overlap
     ethr =  1.26E-08,  avg # of iterations =  3.5

     total cpu time spent up to now is     1216.6 secs

     total energy              =   -4240.94062342 Ry
     estimated scf accuracy    <       0.00000004 Ry

     iteration # 12     ecut=    80.00 Ry     beta= 0.70
     Davidson diagonalization with overlap
     c_bands:  1 eigenvalues not converged
     ethr =  4.56E-11,  avg # of iterations = 12.9

     total cpu time spent up to now is     1389.6 secs

     total energy              =   -4240.94062355 Ry
     estimated scf accuracy    <       0.00000119 Ry

     iteration # 13     ecut=    80.00 Ry     beta= 0.70
     Davidson diagonalization with overlap
     ethr =  4.56E-11,  avg # of iterations =  6.9

     total cpu time spent up to now is     1504.5 secs

     total energy              =   -4240.94062368 Ry
     estimated scf accuracy    <       0.00000001 Ry

     iteration # 14     ecut=    80.00 Ry     beta= 0.70
     Davidson diagonalization with overlap
     ethr =  1.54E-11,  avg # of iterations =  6.0

     total cpu time spent up to now is     1593.5 secs

     total energy              =   -4240.94062368 Ry
     estimated scf accuracy    <          2.1E-09 Ry

     iteration # 15     ecut=    80.00 Ry     beta= 0.70
     Davidson diagonalization with overlap
     ethr =  2.48E-12,  avg # of iterations =  4.7

     total cpu time spent up to now is     1672.6 secs

     End of self-consistent calculation

          k = 0.0000 0.0000 0.0000 ( 36359 PWs)   bands (ev):

   -44.1520 -44.1520 -22.2934 -22.2934 -22.1902 -22.1902 -22.0737 -22.0736
    -7.6628  -7.1623  -7.0213  -6.7800  -6.5371  -5.3281  -5.1054  -4.9005
    -4.8452  -3.8626   0.4405   0.6904   0.7716   1.0634   1.4937   1.5845
     2.4163   2.4760   2.6304   3.0067   3.0316   3.0537   3.1094   3.5010
     3.5676   3.6223   3.8658   4.0452   4.1184   4.2902   4.3205   4.6270
     5.1147   5.5536   5.5762   5.6307   5.8519   6.0330   6.3799   6.8030
     6.9375   7.2942

          k = 0.0000 0.0000 0.1485 ( 36415 PWs)   bands (ev):

   -44.1520 -44.1520 -22.2934 -22.2934 -22.1902 -22.1902 -22.0737 -22.0736
    -7.6237  -7.3290  -6.8949  -6.7887  -6.4246  -5.6940  -4.9192  -4.8567
    -4.7049  -3.9796   0.4840   0.7283   0.9117   1.0529   1.0536   2.0182
     2.1127   2.4416   2.5911   3.0313   3.0435   3.0930   3.3393   3.3661
     3.6696   3.7172   3.8484   4.0370   4.0700   4.3100   4.3332   4.6425
     4.9130   5.0571   5.7213   5.9221   6.0291   6.0539   6.5956   6.6875
     6.7713   7.2703

          k = 0.0000 0.0000-0.2971 ( 36410 PWs)   bands (ev):

   -44.1520 -44.1520 -22.2934 -22.2934 -22.1902 -22.1902 -22.0736 -22.0736
    -7.5087  -7.5087  -6.8184  -6.8184  -6.1104  -6.1104  -4.8848  -4.8848
    -4.2901  -4.2901   0.6697   0.6697   0.8601   0.8601   1.4393   1.4393
     2.5096   2.5096   2.6943   2.6943   3.0333   3.0333   3.3741   3.3741
     3.8346   3.8346   3.9151   3.9151   4.3198   4.3198   4.4202   4.4202
     4.7167   4.7167   5.9624   5.9624   6.2368   6.2368   6.3796   6.3796
     7.1520   7.1520

          k = 0.2541 0.0645 0.0000 ( 36396 PWs)   bands (ev):

   -44.1516 -44.1516 -22.2914 -22.2914 -22.2002 -22.2002 -22.0724 -22.0724
    -7.5491  -7.0804  -6.9185  -6.7339  -6.4773  -5.2927  -5.0953  -4.8595
    -4.8035  -4.0008   0.5277   0.8252   0.9080   1.1818   1.2936   1.4750
     1.9294   2.0848   2.2189   2.5285   2.5894   3.0210   3.4743   3.6644
     3.6806   3.7056   3.7529   3.8010   4.0211   4.1604   4.2190   4.2624
     4.4638   4.7008   5.6958   5.9918   6.2835   6.5436   6.6209   6.8351
     7.0032   7.1438

          k = 0.2541 0.0645 0.1485 ( 36423 PWs)   bands (ev):

   -44.1516 -44.1516 -22.2914 -22.2914 -22.2002 -22.2002 -22.0724 -22.0724
    -7.5110  -7.2278  -6.8244  -6.7415  -6.3548  -5.6389  -4.8972  -4.8171
    -4.7068  -4.0945   0.5588   0.8657   0.9793   0.9938   1.1422   1.5955
     1.8620   2.3165   2.4621   2.5435   2.5599   2.9207   3.2621   3.3015
     3.6508   3.6724   3.8391   3.8916   4.0010   4.0935   4.2306   4.2856
     4.6933   5.0311   5.8068   5.8232   6.2155   6.2739   6.4755   6.6773
     7.2605   7.2943

          k = 0.2541 0.0645-0.2971 ( 36436 PWs)   bands (ev):

   -44.1516 -44.1516 -22.2914 -22.2914 -22.2002 -22.2002 -22.0724 -22.0724
    -7.3995  -7.3995  -6.7660  -6.7660  -6.0398  -6.0398  -4.8507  -4.8507
    -4.3525  -4.3525   0.7009   0.7009   0.9690   0.9690   1.2836   1.2836
     2.2962   2.2962   2.5840   2.5840   2.6909   2.6909   3.0989   3.0989
     3.5919   3.5919   3.8644   3.8644   4.0344   4.0344   4.2819   4.2819
     5.1757   5.1757   5.7433   5.7433   6.0836   6.0836   6.4653   6.4653
     7.4388   7.4390

          k = 0.5081 0.1290 0.0000 ( 36499 PWs)   bands (ev):

   -44.1507 -44.1507 -22.2867 -22.2867 -22.2242 -22.2242 -22.0694 -22.0694
    -7.2311  -6.8877  -6.6230  -6.6042  -6.2823  -5.2299  -5.1180  -4.7519
    -4.7005  -4.4181   0.5220   0.7124   0.7221   1.1873   1.2941   1.5039
     1.6646   1.8234   1.9936   2.1349   2.1700   2.2969   2.3898   3.2504
     3.3597   3.4231   3.4668   3.5724   3.7659   3.8565   3.9535   4.1541
     4.6147   5.3058   5.3899   5.8819   5.9361   6.5435   6.5561   6.8485
     7.3868   7.5655

          k = 0.5081 0.1290 0.1485 ( 36476 PWs)   bands (ev):

   -44.1507 -44.1507 -22.2867 -22.2867 -22.2242 -22.2242 -22.0694 -22.0694
    -7.1974  -6.9679  -6.6257  -6.6080  -6.1412  -5.5074  -4.9232  -4.7288
    -4.6932  -4.4509   0.5149   0.7361   0.8704   1.0805   1.2251   1.4295
     1.4761   1.6641   2.0359   2.0729   2.3239   2.5416   2.8275   3.2797
     3.3541   3.4080   3.4770   3.5783   3.6430   3.7722   3.8466   4.2145
     4.3936   4.5841   6.0278   6.0951   6.2209   6.5504   6.5980   6.7241
     7.2304   7.4840

          k = 0.5081 0.1290-0.2971 ( 36466 PWs)   bands (ev):

   -44.1507 -44.1507 -22.2867 -22.2867 -22.2242 -22.2242 -22.0694 -22.0694
    -7.1014  -7.1014  -6.6185  -6.6185  -5.8460  -5.8460  -4.8006  -4.8006
    -4.5540  -4.5540   0.6149   0.6149   1.0921   1.0921   1.2419   1.2419
     1.3675   1.3675   2.0590   2.0590   2.7708   2.7708   3.1130   3.1130
     3.3419   3.3419   3.5485   3.5485   3.7027   3.7027   3.8332   3.8332
     4.3015   4.3015   6.2609   6.2609   6.5352   6.5352   6.7756   6.7756
     7.0910   7.0910

          k = 0.7622 0.1934 0.0000 ( 36521 PWs)   bands (ev):

   -44.1498 -44.1498 -22.2818 -22.2818 -22.2482 -22.2482 -22.0664 -22.0664
    -6.8420  -6.7193  -6.3454  -6.1802  -5.9342  -5.2968  -5.2677  -5.0592
    -4.6302  -4.5951   0.0069   0.2568   0.6505   1.1381   1.1510   1.2353
     1.4764   1.5925   1.9133   1.9613   2.2704   2.4190   2.4930   2.7488
     2.7790   3.2555   3.2974   3.3602   3.6387   3.6678   3.7786   3.8148
     3.9703   4.5669   5.7644   6.1793   6.2572   6.6951   6.7333   6.8293
     7.2096   7.5654

          k = 0.7622 0.1934 0.1485 ( 36503 PWs)   bands (ev):

   -44.1498 -44.1498 -22.2818 -22.2818 -22.2482 -22.2482 -22.0664 -22.0664
    -6.8239  -6.7362  -6.3401  -6.2468  -5.8151  -5.4193  -5.1957  -5.0794
    -4.6196  -4.5958   0.0775   0.3667   0.5296   0.9571   1.1507   1.2060
     1.4921   1.6652   1.7345   2.0843   2.1342   2.6412   2.6823   2.7934
     2.8647   3.1459   3.2729   3.3776   3.4797   3.6346   3.6752   3.8963
     3.9976   4.7173   5.4077   6.2485   6.5527   6.5995   6.7551   6.9065
     6.9852   7.4722

          k = 0.7622 0.1934-0.2971 ( 36522 PWs)   bands (ev):

   -44.1498 -44.1498 -22.2818 -22.2818 -22.2482 -22.2482 -22.0664 -22.0664
    -6.7797  -6.7797  -6.3138  -6.3138  -5.6103  -5.6103  -5.1302  -5.1302
    -4.6030  -4.6030   0.2698   0.2698   0.6872   0.6872   1.0708   1.0708
     1.5747   1.5747   1.9838   1.9838   2.3703   2.3703   2.7961   2.7961
     2.9941   2.9941   3.3927   3.3927   3.5716   3.5716   3.7980   3.7980
     4.1844   4.1844   5.9873   5.9873   6.3725   6.3725   6.8433   6.8433
     7.3116   7.3116

          k =-1.0162-0.2579 0.0000 ( 36506 PWs)   bands (ev):

   -44.1494 -44.1494 -22.2797 -22.2797 -22.2583 -22.2583 -22.0651 -22.0651
    -6.6872  -6.6671  -5.7945  -5.7834  -5.6934  -5.6813  -5.5170  -5.5165
    -4.5726  -4.5534   0.0772   0.1034   0.4252   0.4445   1.0124   1.0207
     1.4682   1.6747   2.2282   2.3520   2.3528   2.3553   2.7907   2.8254
     2.8259   2.9263   3.2595   3.2698   3.2920   3.4902   3.6120   3.6151
     3.8262   3.9421   6.3745   6.4037   6.4612   6.5458   6.9371   7.0061
     7.0186   7.0203

          k =-1.0162-0.2579 0.1485 ( 36506 PWs)   bands (ev):

   -44.1494 -44.1494 -22.2797 -22.2797 -22.2583 -22.2583 -22.0651 -22.0651
    -6.6836  -6.6693  -5.8032  -5.7941  -5.6943  -5.6883  -5.4997  -5.4987
    -4.5753  -4.5617  -0.0117  -0.0031   0.6440   0.6491   1.0291   1.0550
     1.4640   1.5801   1.9257   1.9973   2.3686   2.3797   2.7486   2.7519
     2.9498   2.9755   3.1708   3.2191   3.5499   3.5511   3.7098   3.7342
     4.0994   4.1136   5.8631   5.8718   6.3918   6.4645   6.9147   6.9525
     7.2323   7.2573

          k =-1.0162-0.2579-0.2971 ( 36528 PWs)   bands (ev):

   -44.1494 -44.1494 -22.2797 -22.2797 -22.2583 -22.2583 -22.0651 -22.0651
    -6.6758  -6.6758  -5.8080  -5.8080  -5.6940  -5.6940  -5.4831  -5.4831
    -4.5741  -4.5741  -0.0675  -0.0675   0.9071   0.9071   1.0254   1.0254
     1.5538   1.5538   1.5833   1.5833   2.3700   2.3700   2.7851   2.7851
     2.9306   2.9306   3.1969   3.1969   3.5962   3.5962   3.7753   3.7753
     4.5780   4.5780   5.2925   5.2925   6.3570   6.3570   6.9536   6.9536
     7.3027   7.3027

          k = 0.5081 0.0000 0.0000 ( 36503 PWs)   bands (ev):

   -44.1507 -44.1507 -22.2867 -22.2867 -22.2242 -22.2242 -22.0694 -22.0694
    -7.2371  -6.8899  -6.6241  -6.5971  -6.2777  -5.2308  -5.1145  -4.7477
    -4.7058  -4.4177   0.5211   0.7185   0.7191   1.1552   1.2891   1.4832
     1.6691   1.8295   2.0063   2.1227   2.1317   2.2892   2.3977   3.2327
     3.3713   3.4073   3.5222   3.5944   3.7726   3.8425   3.9942   4.1914
     4.6169   5.3066   5.3957   5.9150   5.9174   6.5040   6.5046   6.8838
     7.4137   7.5733

          k = 0.5081 0.0000 0.1485 ( 36453 PWs)   bands (ev):

   -44.1507 -44.1507 -22.2867 -22.2867 -22.2242 -22.2242 -22.0694 -22.0694
    -7.2032  -6.9722  -6.6211  -6.6015  -6.1397  -5.5082  -4.9171  -4.7307
    -4.6939  -4.4518   0.5133   0.7309   0.8759   1.0822   1.1973   1.4366
     1.4450   1.6592   2.0308   2.0771   2.3268   2.5133   2.8201   3.2662
     3.3505   3.4378   3.4904   3.5961   3.6378   3.8244   3.8436   4.2496
     4.4088   4.5846   6.0277   6.1125   6.2262   6.4995   6.5625   6.7548
     7.2557   7.4886

          k = 0.5081 0.0000-0.2971 ( 36452 PWs)   bands (ev):

   -44.1507 -44.1507 -22.2867 -22.2867 -22.2242 -22.2242 -22.0694 -22.0694
    -7.1069  -7.1069  -6.6117  -6.6117  -5.8466  -5.8466  -4.7964  -4.7964
    -4.5567  -4.5567   0.6106   0.6106   1.0923   1.0923   1.2688   1.2688
     1.3165   1.3165   2.0590   2.0590   2.7618   2.7618   3.0912   3.0912
     3.3358   3.3358   3.5999   3.5999   3.7129   3.7129   3.8364   3.8364
     4.3256   4.3256   6.2765   6.2765   6.5005   6.5005   6.7904   6.7904
     7.0928   7.0928

          k = 0.7622 0.0645 0.0000 ( 36505 PWs)   bands (ev):

   -44.1498 -44.1498 -22.2818 -22.2818 -22.2482 -22.2482 -22.0664 -22.0664
    -6.8513  -6.7175  -6.3361  -6.1827  -5.9335  -5.2921  -5.2684  -5.0588
    -4.6235  -4.6030   0.0010   0.2683   0.6747   1.1390   1.1718   1.2495
     1.4340   1.5490   1.8903   1.9746   2.2310   2.3910   2.4762   2.7215
     2.7627   3.3121   3.3285   3.3675   3.6059   3.6584   3.8296   3.8387
     3.9885   4.6095   5.7628   6.1946   6.2208   6.6630   6.7858   6.7908
     7.2324   7.5689

          k = 0.7622 0.0645 0.1485 ( 36509 PWs)   bands (ev):

   -44.1498 -44.1498 -22.2818 -22.2818 -22.2482 -22.2482 -22.0664 -22.0664
    -6.8323  -6.7369  -6.3311  -6.2450  -5.8164  -5.4196  -5.1925  -5.0785
    -4.6150  -4.6014   0.0754   0.3734   0.5390   0.9789   1.1497   1.2194
     1.4545   1.6620   1.7610   2.0123   2.0617   2.6545   2.6730   2.7633
     2.8527   3.1466   3.3393   3.3968   3.4429   3.6521   3.7008   3.9136
     4.0437   4.7163   5.4346   6.2320   6.5571   6.5891   6.7721   6.9036
     6.9651   7.4908

          k = 0.7622 0.0645-0.2971 ( 36472 PWs)   bands (ev):

   -44.1498 -44.1498 -22.2818 -22.2818 -22.2482 -22.2482 -22.0664 -22.0664
    -6.7850  -6.7850  -6.3070  -6.3070  -5.6120  -5.6120  -5.1278  -5.1278
    -4.6034  -4.6034   0.2735   0.2735   0.6831   0.6831   1.0964   1.0964
     1.5690   1.5690   1.9341   1.9341   2.3348   2.3348   2.7903   2.7903
     2.9893   2.9893   3.4594   3.4594   3.5680   3.5680   3.7895   3.7895
     4.2086   4.2086   6.0114   6.0114   6.3740   6.3740   6.8089   6.8089
     7.3379   7.3379

          k = 1.0162 0.1290 0.0000 ( 36514 PWs)   bands (ev):

   -44.1494 -44.1494 -22.2797 -22.2797 -22.2583 -22.2583 -22.0651 -22.0651
    -6.6872  -6.6671  -5.7940  -5.7839  -5.6934  -5.6813  -5.5174  -5.5161
    -4.5726  -4.5534   0.0713   0.1094   0.4195   0.4503   1.0072   1.0275
     1.4733   1.6660   2.2315   2.3390   2.3452   2.3605   2.7920   2.8203
     2.8573   2.9224   3.2337   3.2823   3.3045   3.4860   3.5966   3.6302
     3.8101   3.9534   6.3702   6.4090   6.4564   6.5512   6.9481   7.0087
     7.0129   7.0225

          k = 1.0162 0.1290 0.1485 ( 36524 PWs)   bands (ev):

   -44.1494 -44.1494 -22.2797 -22.2797 -22.2583 -22.2583 -22.0651 -22.0651
    -6.6836  -6.6693  -5.8028  -5.7944  -5.6943  -5.6882  -5.5001  -5.4983
    -4.5753  -4.5617  -0.0138  -0.0014   0.6432   0.6506   1.0332   1.0519
     1.4684   1.5771   1.9322   1.9862   2.3617   2.3757   2.7025   2.8068
     2.9633   2.9931   3.1457   3.2202   3.5316   3.5923   3.7001   3.7121
     4.0868   4.1321   5.8523   5.8850   6.3891   6.4670   6.9216   6.9513
     7.2360   7.2538

          k = 1.0162 0.1290-0.2971 ( 36516 PWs)   bands (ev):

   -44.1494 -44.1494 -22.2797 -22.2797 -22.2583 -22.2583 -22.0651 -22.0651
    -6.6758  -6.6758  -5.8080  -5.8080  -5.6940  -5.6940  -5.4831  -5.4831
    -4.5741  -4.5741  -0.0677  -0.0677   0.9063   0.9063   1.0275   1.0275
     1.5510   1.5510   1.5867   1.5867   2.3598   2.3598   2.7685   2.7685
     2.9815   2.9815   3.1712   3.1712   3.6026   3.6026   3.7676   3.7676
     4.5783   4.5783   5.2945   5.2945   6.3566   6.3566   6.9559   6.9559
     7.3027   7.3027

          k =-0.7622-0.3224 0.0000 ( 36511 PWs)   bands (ev):

   -44.1498 -44.1498 -22.2818 -22.2818 -22.2482 -22.2482 -22.0664 -22.0664
    -6.8271  -6.7232  -6.3586  -6.1767  -5.9354  -5.3035  -5.2666  -5.0597
    -4.6358  -4.5878   0.0153   0.2409   0.6181   1.1112   1.1676   1.2162
     1.4996   1.6604   1.9445   1.9605   2.3426   2.4388   2.5179   2.7812
     2.8023   3.1731   3.2701   3.3834   3.5942   3.6558   3.7850   3.7884
     3.9347   4.4979   5.7669   6.1725   6.3018   6.6519   6.7441   6.8964
     7.1713   7.5643

          k =-0.7622-0.3224 0.1485 ( 36492 PWs)   bands (ev):

   -44.1498 -44.1498 -22.2818 -22.2818 -22.2482 -22.2482 -22.0664 -22.0664
    -6.8107  -6.7362  -6.3529  -6.2495  -5.8134  -5.4191  -5.2001  -5.0807
    -4.6233  -4.5906   0.0799   0.3588   0.5149   0.9318   1.1558   1.1893
     1.5432   1.6626   1.7087   2.1882   2.2367   2.6288   2.6918   2.8248
     2.8782   3.1668   3.1832   3.3617   3.4789   3.6245   3.6525   3.8685
     3.9201   4.7173   5.3716   6.2754   6.5310   6.6091   6.7403   6.9347
     7.0089   7.4398

          k =-0.7622-0.3224-0.2971 ( 36508 PWs)   bands (ev):

   -44.1498 -44.1498 -22.2818 -22.2818 -22.2482 -22.2482 -22.0664 -22.0664
    -6.7719  -6.7719  -6.3236  -6.3236  -5.6079  -5.6079  -5.1336  -5.1336
    -4.6024  -4.6024   0.2643   0.2643   0.6931   0.6931   1.0415   1.0415
     1.5806   1.5806   2.0414   2.0414   2.4381   2.4381   2.8074   2.8074
     2.9995   2.9995   3.3003   3.3003   3.5755   3.5755   3.7961   3.7961
     4.1525   4.1525   5.9554   5.9554   6.3690   6.3690   6.9017   6.9017
     7.2669   7.2669

          k =-0.5081-0.2579 0.0000 ( 36480 PWs)   bands (ev):

   -44.1507 -44.1507 -22.2867 -22.2867 -22.2242 -22.2242 -22.0694 -22.0694
    -7.2160  -6.8830  -6.6210  -6.6202  -6.2937  -5.2278  -5.1265  -4.7584
    -4.6912  -4.4191   0.5262   0.6970   0.7236   1.2805   1.3052   1.5552
     1.6592   1.8153   1.9671   2.1684   2.2392   2.3108   2.3731   3.2964
     3.3451   3.3564   3.4486   3.4855   3.7364   3.8654   3.8939   4.0794
     4.6062   5.3002   5.3782   5.7968   5.9899   6.6424   6.6762   6.7640
     7.3157   7.5500

          k =-0.5081-0.2579 0.1485 ( 36485 PWs)   bands (ev):

   -44.1507 -44.1507 -22.2867 -22.2867 -22.2242 -22.2242 -22.0694 -22.0694
    -7.1825  -6.9572  -6.6377  -6.6238  -6.1446  -5.5056  -4.9370  -4.7259
    -4.6909  -4.4489   0.5195   0.7445   0.8572   1.0769   1.3026   1.4281
     1.5406   1.6739   2.0464   2.0682   2.3194   2.6013   2.8449   3.3045
     3.3194   3.3642   3.4650   3.5011   3.6370   3.7271   3.8277   4.1403
     4.3491   4.5822   6.0063   6.0723   6.2123   6.6451   6.6704   6.6951
     7.1657   7.4761

          k =-0.5081-0.2579-0.2971 ( 36478 PWs)   bands (ev):

   -44.1507 -44.1507 -22.2867 -22.2867 -22.2242 -22.2242 -22.0694 -22.0694
    -7.0873  -7.0873  -6.6355  -6.6355  -5.8447  -5.8447  -4.8104  -4.8104
    -4.5477  -4.5477   0.6247   0.6247   1.0907   1.0907   1.2154   1.2154
     1.4610   1.4610   2.0571   2.0571   2.7954   2.7954   3.1676   3.1676
     3.3527   3.3527   3.4130   3.4130   3.6932   3.6932   3.8213   3.8213
     4.2417   4.2417   6.2225   6.2225   6.6087   6.6087   6.7473   6.7473
     7.0917   7.0917

          k =-0.2541-0.1934 0.0000 ( 36410 PWs)   bands (ev):

   -44.1516 -44.1516 -22.2914 -22.2914 -22.2002 -22.2002 -22.0724 -22.0724
    -7.5384  -7.0709  -6.9165  -6.7476  -6.4933  -5.2917  -5.1026  -4.8670
    -4.7939  -4.0018   0.5579   0.8988   0.9172   1.2074   1.3256   1.4754
     1.9518   2.1042   2.2232   2.4934   2.5708   3.0893   3.3913   3.5617
     3.6083   3.6928   3.7773   3.8134   3.9391   4.1517   4.1957   4.2246
     4.4023   4.6741   5.7457   6.0089   6.3294   6.5917   6.6053   6.8519
     6.9974   7.0672

          k =-0.2541-0.1934 0.1485 ( 36427 PWs)   bands (ev):

   -44.1516 -44.1516 -22.2914 -22.2914 -22.2002 -22.2002 -22.0724 -22.0724
    -7.5003  -7.2174  -6.8309  -6.7548  -6.3630  -5.6380  -4.9152  -4.8121
    -4.7001  -4.0943   0.5839   0.9199   1.0058   1.0317   1.1670   1.6124
     1.8641   2.3184   2.4807   2.5082   2.5632   2.9126   3.2660   3.3372
     3.5364   3.6485   3.7291   3.8873   3.9710   4.0760   4.1863   4.2315
     4.6788   5.0137   5.7878   5.8424   6.1885   6.3267   6.5541   6.6894
     7.2162   7.2871

          k =-0.2541-0.1934-0.2971 ( 36422 PWs)   bands (ev):

   -44.1516 -44.1516 -22.2914 -22.2914 -22.2002 -22.2002 -22.0724 -22.0724
    -7.3889  -7.3889  -6.7786  -6.7786  -6.0409  -6.0409  -4.8568  -4.8568
    -4.3494  -4.3494   0.7192   0.7192   1.0346   1.0346   1.2929   1.2929
     2.2954   2.2954   2.5576   2.5576   2.7002   2.7002   3.1290   3.1290
     3.5199   3.5199   3.8028   3.8028   4.0250   4.0250   4.2253   4.2253
     5.1734   5.1734   5.7032   5.7032   6.0755   6.0755   6.5540   6.5540
     7.4125   7.4125

          k = 0.0000-0.1290 0.0000 ( 36417 PWs)   bands (ev):

   -44.1520 -44.1520 -22.2934 -22.2934 -22.1902 -22.1902 -22.0737 -22.0736
    -7.6572  -7.1563  -7.0203  -6.7876  -6.5469  -5.3278  -5.1093  -4.9061
    -4.8388  -3.8633   0.4648   0.7325   0.7771   1.0688   1.5183   1.5950
     2.4197   2.4768   2.6375   3.0142   3.0274   3.0519   3.1473   3.4583
     3.5019   3.6115   3.7884   4.0163   4.1184   4.2381   4.2704   4.6280
     5.1066   5.5085   5.6022   5.6380   5.8660   6.0766   6.4322   6.7756
     6.9382   7.2752

          k = 0.0000-0.1290 0.1485 ( 36419 PWs)   bands (ev):

   -44.1520 -44.1520 -22.2934 -22.2934 -22.1902 -22.1902 -22.0737 -22.0736
    -7.6180  -7.3234  -6.8975  -6.7961  -6.4304  -5.6938  -4.9299  -4.8531
    -4.7013  -3.9796   0.5052   0.7705   0.9270   1.0448   1.0798   2.0265
     2.1280   2.4453   2.5973   3.0273   3.0410   3.1145   3.2970   3.3456
     3.6658   3.7082   3.7697   3.9832   4.0683   4.2632   4.2863   4.6434
     4.9098   5.0441   5.7296   5.9254   6.0440   6.0720   6.5838   6.7251
     6.7722   7.2568

          k = 0.0000-0.1290-0.2971 ( 36464 PWs)   bands (ev):

   -44.1520 -44.1520 -22.2934 -22.2934 -22.1902 -22.1902 -22.0736 -22.0736
    -7.5031  -7.5031  -6.8249  -6.8249  -6.1116  -6.1116  -4.8880  -4.8880
    -4.2887  -4.2887   0.6962   0.6962   0.8783   0.8783   1.4485   1.4485
     2.5142   2.5142   2.7048   2.7048   3.0299   3.0299   3.3400   3.3400
     3.8014   3.8014   3.9095   3.9095   4.2349   4.2349   4.4328   4.4328
     4.7167   4.7167   5.9520   5.9520   6.2607   6.2607   6.3812   6.3812
     7.1552   7.1553

          k = 1.0162 0.0000 0.0000 ( 36499 PWs)   bands (ev):

   -44.1494 -44.1494 -22.2797 -22.2797 -22.2583 -22.2583 -22.0651 -22.0651
    -6.6872  -6.6671  -5.7935  -5.7844  -5.6934  -5.6813  -5.5176  -5.5159
    -4.5726  -4.5534   0.0669   0.1139   0.4154   0.4546   1.0046   1.0319
     1.4790   1.6567   2.2353   2.3238   2.3426   2.3640   2.7943   2.8136
     2.9015   2.9051   3.2233   3.2972   3.2996   3.4770   3.5845   3.6514
     3.7896   3.9639   6.3669   6.4134   6.4520   6.5563   6.9623   7.0042
     7.0112   7.0247

          k = 1.0162 0.0000 0.1485 ( 36485 PWs)   bands (ev):

   -44.1494 -44.1494 -22.2797 -22.2797 -22.2583 -22.2583 -22.0651 -22.0651
    -6.6836  -6.6693  -5.8025  -5.7948  -5.6943  -5.6882  -5.5004  -5.4980
    -4.5753  -4.5617  -0.0154  -0.0002   0.6427   0.6518   1.0409   1.0451
     1.4732   1.5738   1.9433   1.9703   2.3567   2.3704   2.6872   2.8254
     2.9747   3.0389   3.0999   3.2208   3.5289   3.6355   3.6692   3.6940
     4.0809   4.1435   5.8471   5.8926   6.3865   6.4694   6.9300   6.9485
     7.2433   7.2467

          k = 1.0162 0.0000-0.2971 ( 36514 PWs)   bands (ev):

   -44.1494 -44.1494 -22.2797 -22.2797 -22.2583 -22.2583 -22.0651 -22.0651
    -6.6758  -6.6758  -5.8079  -5.8079  -5.6940  -5.6940  -5.4831  -5.4831
    -4.5741  -4.5741  -0.0678  -0.0678   0.9055   0.9055   1.0297   1.0297
     1.5487   1.5487   1.5897   1.5897   2.3499   2.3499   2.7570   2.7570
     3.0462   3.0462   3.1262   3.1262   3.6094   3.6094   3.7595   3.7595
     4.5787   4.5787   5.2964   5.2964   6.3563   6.3563   6.9582   6.9582
     7.3027   7.3027

          k = 1.2703 0.0645 0.0000 ( 36468 PWs)   bands (ev):

   -44.1498 -44.1498 -22.2819 -22.2818 -22.2482 -22.2482 -22.0664 -22.0664
    -6.8149  -6.7275  -6.3681  -6.1742  -5.9364  -5.3082  -5.2659  -5.0601
    -4.6387  -4.5837   0.0213   0.2300   0.5963   1.1010   1.1791   1.2019
     1.5035   1.7084   1.9338   2.0046   2.4104   2.4339   2.5365   2.7982
     2.8196   3.1002   3.2804   3.4495   3.5436   3.5519   3.7749   3.8484
     3.9027   4.4395   5.7689   6.1730   6.3340   6.5941   6.7820   6.9521
     7.1358   7.5713

          k = 1.2703 0.0645 0.1485 ( 36490 PWs)   bands (ev):

   -44.1498 -44.1498 -22.2818 -22.2818 -22.2482 -22.2482 -22.0664 -22.0664
    -6.8000  -6.7373  -6.3621  -6.2516  -5.8121  -5.4190  -5.2032  -5.0816
    -4.6252  -4.5877   0.0812   0.3544   0.5037   0.9170   1.1608   1.1789
     1.5900   1.6445   1.6965   2.2656   2.3130   2.6224   2.6969   2.8409
     2.8876   3.1075   3.2089   3.3676   3.4256   3.5801   3.7233   3.8309
     3.8472   4.7164   5.3476   6.2989   6.5004   6.6149   6.7393   6.9683
     7.0235   7.4121

          k = 1.2703 0.0645-0.2971 ( 36480 PWs)   bands (ev):

   -44.1498 -44.1498 -22.2818 -22.2818 -22.2482 -22.2482 -22.0664 -22.0664
    -6.7661  -6.7661  -6.3307  -6.3307  -5.6061  -5.6061  -5.1360  -5.1360
    -4.6020  -4.6020   0.2602   0.2602   0.6973   0.6973   1.0243   1.0243
     1.5844   1.5844   2.0719   2.0719   2.5000   2.5000   2.8292   2.8292
     2.9961   2.9961   3.2256   3.2256   3.5818   3.5818   3.7850   3.7850
     4.1324   4.1324   5.9342   5.9342   6.3658   6.3658   6.9538   6.9538
     7.2258   7.2258

          k =-0.5081-0.3869 0.0000 ( 36463 PWs)   bands (ev):

   -44.1507 -44.1507 -22.2867 -22.2867 -22.2242 -22.2242 -22.0694 -22.0694
    -7.1997  -6.8797  -6.6370  -6.6174  -6.3058  -5.2257  -5.1351  -4.7623
    -4.6845  -4.4202   0.5336   0.6825   0.7157   1.3151   1.4177   1.5956
     1.6473   1.8157   1.9430   2.2106   2.2691   2.3148   2.3764   3.2220
     3.3371   3.3699   3.3803   3.4957   3.6998   3.7766   3.8713   4.0683
     4.5950   5.2859   5.3690   5.7147   6.0495   6.6789   6.7554   6.7926
     7.2282   7.5702

          k =-0.5081-0.3869 0.1485 ( 36477 PWs)   bands (ev):

   -44.1507 -44.1507 -22.2867 -22.2867 -22.2242 -22.2242 -22.0694 -22.0694
    -7.1663  -6.9464  -6.6501  -6.6407  -6.1479  -5.5038  -4.9499  -4.7247
    -4.6877  -4.4470   0.5252   0.7478   0.8437   1.0735   1.4024   1.4359
     1.5889   1.6897   2.0556   2.0746   2.3095   2.6481   2.8645   3.1912
     3.3353   3.3631   3.4022   3.5001   3.6430   3.7055   3.7722   4.1060
     4.2853   4.5801   5.9515   6.0814   6.2081   6.5798   6.7711   6.8130
     7.0863   7.4800

          k =-0.5081-0.3869-0.2971 ( 36492 PWs)   bands (ev):

   -44.1507 -44.1507 -22.2867 -22.2867 -22.2242 -22.2242 -22.0694 -22.0694
    -7.0721  -7.0721  -6.6537  -6.6537  -5.8433  -5.8433  -4.8198  -4.8198
    -4.5418  -4.5418   0.6337   0.6337   1.0882   1.0882   1.1995   1.1995
     1.5599   1.5599   2.0498   2.0498   2.8233   2.8233   3.1996   3.1996
     3.2903   3.2903   3.3763   3.3763   3.6753   3.6753   3.8085   3.8085
     4.1807   4.1807   6.1849   6.1849   6.6381   6.6381   6.7554   6.7554
     7.1034   7.1034

          k =-0.2541-0.3224 0.0000 ( 36485 PWs)   bands (ev):

   -44.1516 -44.1516 -22.2914 -22.2914 -22.2002 -22.2002 -22.0724 -22.0724
    -7.5225  -7.0577  -6.9137  -6.7656  -6.5176  -5.2902  -5.1133  -4.8724
    -4.7851  -4.0033   0.5845   0.9312   1.0256   1.2566   1.3978   1.4730
     1.9868   2.1359   2.2249   2.4125   2.5182   3.2069   3.2593   3.3773
     3.5552   3.6730   3.7406   3.8407   3.9194   4.0757   4.1551   4.1826
     4.3963   4.6133   5.8249   6.0246   6.3700   6.5484   6.6910   6.8765
     6.9395   7.0090

          k =-0.2541-0.3224 0.1485 ( 36445 PWs)   bands (ev):

   -44.1516 -44.1516 -22.2914 -22.2914 -22.2002 -22.2002 -22.0724 -22.0724
    -7.4844  -7.2021  -6.8420  -6.7734  -6.3746  -5.6368  -4.9366  -4.8085
    -4.6914  -4.0940   0.6039   0.9606   1.0479   1.1351   1.2428   1.6374
     1.8724   2.3134   2.4281   2.4887   2.5631   2.8962   3.2933   3.3426
     3.3658   3.5198   3.7426   3.8821   3.9181   4.0673   4.1030   4.1622
     4.6862   4.9794   5.7709   5.8681   6.1788   6.3198   6.6562   6.7231
     7.1627   7.2765

          k =-0.2541-0.3224-0.2971 ( 36442 PWs)   bands (ev):

   -44.1516 -44.1516 -22.2914 -22.2914 -22.2002 -22.2002 -22.0724 -22.0724
    -7.3730  -7.3730  -6.7973  -6.7973  -6.0422  -6.0422  -4.8653  -4.8653
    -4.3452  -4.3452   0.7304   0.7304   1.1650   1.1650   1.3066   1.3066
     2.2902   2.2902   2.5012   2.5012   2.7074   2.7074   3.1831   3.1831
     3.3495   3.3495   3.7927   3.7927   4.0127   4.0127   4.1469   4.1469
     5.1732   5.1732   5.6604   5.6604   6.0483   6.0483   6.6617   6.6617
     7.3783   7.3783

          k = 0.0000-0.2579 0.0000 ( 36445 PWs)   bands (ev):

   -44.1520 -44.1520 -22.2934 -22.2934 -22.1902 -22.1902 -22.0737 -22.0736
    -7.6431  -7.1416  -7.0178  -6.8051  -6.5718  -5.3270  -5.1191  -4.9138
    -4.8283  -3.8649   0.5102   0.7910   0.8480   1.1107   1.5734   1.6194
     2.4280   2.4775   2.6553   3.0168   3.0459   3.0476   3.2477   3.2707
     3.2815   3.5853   3.7181   3.9840   4.0985   4.1183   4.1450   4.6306
     5.0873   5.4431   5.6554   5.6696   5.9005   6.1404   6.5300   6.6950
     6.9397   7.2375

          k = 0.0000-0.2579 0.1485 ( 36452 PWs)   bands (ev):

   -44.1520 -44.1520 -22.2934 -22.2934 -22.1902 -22.1902 -22.0737 -22.0736
    -7.6040  -7.3093  -6.9048  -6.8134  -6.4443  -5.6933  -4.9516  -4.8482
    -4.6932  -3.9795   0.5405   0.8772   0.9777   1.0841   1.1085   2.0488
     2.1625   2.4544   2.6128   3.0174   3.0349   3.1153   3.1955   3.2220
     3.6362   3.6710   3.6864   3.9254   4.0640   4.1412   4.1739   4.6459
     4.9019   5.0255   5.7570   5.9337   6.0718   6.0935   6.5483   6.7744
     6.7937   7.2208

          k = 0.0000-0.2579-0.2971 ( 36454 PWs)   bands (ev):

   -44.1520 -44.1520 -22.2934 -22.2934 -22.1902 -22.1902 -22.0736 -22.0736
    -7.4890  -7.4890  -6.8412  -6.8412  -6.1143  -6.1143  -4.8956  -4.8956
    -4.2853  -4.2853   0.7294   0.7294   0.9672   0.9672   1.4718   1.4718
     2.5259   2.5259   2.7232   2.7232   3.0216   3.0216   3.1956   3.1956
     3.7701   3.7701   3.8960   3.8960   4.0968   4.0968   4.4252   4.4252
     4.7170   4.7170   5.9263   5.9263   6.3012   6.3012   6.3853   6.3853
     7.1446   7.1446

          k = 1.5243 0.0000 0.0000 ( 36439 PWs)   bands (ev):

   -44.1507 -44.1507 -22.2867 -22.2867 -22.2242 -22.2242 -22.0694 -22.0694
    -7.1925  -6.8789  -6.6433  -6.6162  -6.3111  -5.2248  -5.1386  -4.7633
    -4.6823  -4.4206   0.5379   0.6768   0.7098   1.3189   1.5530   1.5551
     1.6246   1.8108   1.9493   2.2338   2.2589   2.3102   2.3915   3.1703
     3.3140   3.3495   3.3941   3.5717   3.6683   3.6884   3.8654   4.0828
     4.5898   5.2759   5.3657   5.6826   6.0765   6.6427   6.8186   6.8338
     7.1816   7.5717

          k = 1.5243 0.0000 0.1485 ( 36476 PWs)   bands (ev):

   -44.1507 -44.1507 -22.2867 -22.2867 -22.2242 -22.2242 -22.0694 -22.0694
    -7.1592  -6.9419  -6.6535  -6.6499  -6.1493  -5.5031  -4.9550  -4.7246
    -4.6862  -4.4462   0.5279   0.7478   0.8379   1.0722   1.4225   1.4897
     1.5727   1.7099   2.0669   2.0761   2.3005   2.6604   2.8770   3.1396
     3.2928   3.3769   3.3882   3.5814   3.6010   3.7023   3.7203   4.1189
     4.2439   4.5794   5.9251   6.0892   6.2072   6.5512   6.8159   6.8761
     7.0376   7.4911

          k = 1.5243 0.0000-0.2971 ( 36508 PWs)   bands (ev):

   -44.1507 -44.1507 -22.2867 -22.2867 -22.2242 -22.2242 -22.0694 -22.0694
    -7.0654  -7.0654  -6.6617  -6.6617  -5.8427  -5.8427  -4.8237  -4.8237
    -4.5395  -4.5395   0.6373   0.6373   1.0868   1.0868   1.1941   1.1941
     1.6069   1.6069   2.0434   2.0434   2.8362   2.8362   3.1596   3.1596
     3.3023   3.3023   3.3805   3.3805   3.6592   3.6592   3.8043   3.8043
     4.1557   4.1557   6.1696   6.1696   6.6328   6.6328   6.7726   6.7726
     7.1132   7.1132

          k =-0.2541-0.4514 0.0000 ( 36444 PWs)   bands (ev):

   -44.1516 -44.1516 -22.2914 -22.2914 -22.2002 -22.2002 -22.0724 -22.0724
    -7.5106  -7.0489  -6.9117  -6.7769  -6.5365  -5.2891  -5.1211  -4.8740
    -4.7809  -4.0044   0.5929   0.9418   1.1379   1.2929   1.4693   1.4869
     2.0255   2.1613   2.2159   2.3201   2.4414   3.1611   3.2504   3.3128
     3.5588   3.6522   3.7426   3.7679   3.9220   4.0302   4.1215   4.1562
     4.4519   4.5341   5.8904   6.0324   6.3893   6.5115   6.7453   6.8687
     6.8958   6.9987

          k =-0.2541-0.4514 0.1485 ( 36461 PWs)   bands (ev):

   -44.1516 -44.1516 -22.2914 -22.2914 -22.2002 -22.2002 -22.0724 -22.0724
    -7.4724  -7.1907  -6.8514  -6.7863  -6.3827  -5.6359  -4.9500  -4.8072
    -4.6857  -4.0938   0.6089   0.9769   1.0599   1.2704   1.3204   1.6588
     1.8884   2.2906   2.3347   2.4617   2.5696   2.8831   3.2357   3.2495
     3.3761   3.5273   3.7705   3.8379   3.8875   3.9954   4.0933   4.1259
     4.7073   4.9464   5.7622   5.8887   6.1882   6.2750   6.7241   6.7466
     7.1329   7.2687

          k =-0.2541-0.4514-0.2971 ( 36490 PWs)   bands (ev):

   -44.1516 -44.1516 -22.2914 -22.2914 -22.2002 -22.2002 -22.0724 -22.0724
    -7.3611  -7.3611  -6.8114  -6.8114  -6.0430  -6.0430  -4.8714  -4.8714
    -4.3423  -4.3423   0.7321   0.7321   1.2813   1.2813   1.3267   1.3267
     2.2705   2.2705   2.4412   2.4412   2.7111   2.7111   3.2044   3.2044
     3.2558   3.2558   3.7899   3.7899   3.9991   3.9991   4.1011   4.1011
     5.1749   5.1749   5.6354   5.6354   6.0231   6.0231   6.7265   6.7265
     7.3565   7.3565

          k = 0.0000-0.3869 0.0000 ( 36477 PWs)   bands (ev):

   -44.1520 -44.1520 -22.2934 -22.2934 -22.1902 -22.1902 -22.0737 -22.0736
    -7.6282  -7.1269  -7.0152  -6.8208  -6.5993  -5.3262  -5.1296  -4.9169
    -4.8219  -3.8665   0.5338   0.8055   1.0065   1.1757   1.6388   1.6423
     2.4366   2.4724   2.6745   2.9883   3.0054   3.0366   3.0434   3.0961
     3.3874   3.5585   3.7383   3.9169   3.9674   4.0096   4.1180   4.6335
     5.0684   5.4065   5.6730   5.7469   5.9373   6.1773   6.5925   6.5993
     6.9409   7.2082

          k = 0.0000-0.3869 0.1485 ( 36452 PWs)   bands (ev):

   -44.1520 -44.1520 -22.2934 -22.2934 -22.1902 -22.1902 -22.0737 -22.0736
    -7.5891  -7.2945  -6.9141  -6.8303  -6.4583  -5.6926  -4.9702  -4.8458
    -4.6859  -3.9795   0.5539   0.9887   1.0216   1.1404   1.2007   2.0744
     2.1922   2.4639   2.6294   2.9150   2.9532   3.0068   3.0286   3.2949
     3.6128   3.6643   3.6725   3.9085   4.0082   4.0586   4.0595   4.6487
     4.8941   5.0171   5.7940   5.9425   6.0880   6.0955   6.5042   6.7766
     6.8375   7.1864

          k = 0.0000-0.3869-0.2971 ( 36454 PWs)   bands (ev):

   -44.1520 -44.1520 -22.2934 -22.2934 -22.1902 -22.1902 -22.0736 -22.0736
    -7.4741  -7.4741  -6.8584  -6.8584  -6.1168  -6.1168  -4.9033  -4.9033
    -4.2818  -4.2818   0.7335   0.7335   1.1146   1.1146   1.4971   1.4971
     2.5381   2.5381   2.6935   2.6935   3.0128   3.0128   3.0273   3.0273
     3.7837   3.7837   3.8823   3.8823   3.9866   3.9866   4.4118   4.4118
     4.7174   4.7174   5.8973   5.8973   6.3267   6.3267   6.3896   6.3896
     7.1190   7.1190

          k =-2.0325 0.0000 0.0000 ( 36452 PWs)   bands (ev):

   -44.1520 -44.1520 -22.2934 -22.2934 -22.1902 -22.1902 -22.0737 -22.0736
    -7.6218  -7.1209  -7.0142  -6.8265  -6.6117  -5.3258  -5.1340  -4.9173
    -4.8199  -3.8671   0.5378   0.8117   1.1165   1.1767   1.6513   1.6801
     2.4403   2.4665   2.6828   2.8432   2.9375   3.0004   3.0417   3.1241
     3.4842   3.5471   3.7617   3.8023   3.9483   3.9566   4.1178   4.6347
     5.0607   5.3961   5.6803   5.7832   5.9545   6.1883   6.5419   6.6217
     6.9414   7.1978

          k =-2.0325 0.0000 0.1485 ( 36456 PWs)   bands (ev):

   -44.1520 -44.1520 -22.2934 -22.2934 -22.1902 -22.1902 -22.0737 -22.0736
    -7.5826  -7.2882  -6.9187  -6.8370  -6.4641  -5.6923  -4.9773  -4.8452
    -4.6830  -3.9795   0.5545   1.0282   1.0325   1.1803   1.2673   2.0854
     2.2039   2.4679   2.6365   2.7912   2.8456   3.0021   3.0259   3.3537
     3.5922   3.6551   3.7006   3.8821   3.9558   4.0148   4.0576   4.6499
     4.8909   5.0156   5.8137   5.9464   6.0769   6.1048   6.4844   6.7775
     6.8494   7.1735

          k =-2.0325 0.0000-0.2971 ( 36460 PWs)   bands (ev):

   -44.1520 -44.1520 -22.2934 -22.2934 -22.1902 -22.1902 -22.0736 -22.0736
    -7.4676  -7.4676  -6.8659  -6.8659  -6.1178  -6.1178  -4.9065  -4.9065
    -4.2804  -4.2804   0.7316   0.7316   1.1929   1.1929   1.5091   1.5091
     2.5433   2.5433   2.6364   2.6364   2.9852   2.9852   3.0091   3.0091
     3.7913   3.7913   3.8766   3.8766   3.9470   3.9470   4.4067   4.4067
     4.7176   4.7176   5.8837   5.8837   6.3344   6.3344   6.3915   6.3915
     7.1064   7.1065

     the Fermi energy is     5.3100 ev

!    total energy              =   -4240.94062368 Ry

     total all-electron energy =   -150287.634318 Ry
     estimated scf accuracy    <          2.8E-11 Ry
     smearing contrib. (-TS)   =      -0.00003108 Ry
     internal energy E=F+TS    =   -4240.94059260 Ry

     The total energy is F=E-TS. E is the sum of the following terms:
     one-electron contribution =    -165.19596100 Ry
     hartree contribution      =     116.07042440 Ry
     xc contribution           =    -201.42544754 Ry
     ewald contribution        =    -222.87942322 Ry
     one-center paw contrib.   =   -3767.51018524 Ry

     convergence has been achieved in  15 iterations

     Forces acting on atoms (cartesian axes, Ry/au):

     atom    1 type  1   force =     0.00000000   -0.01773178    0.00000000
     atom    2 type  1   force =     0.00000000    0.01773178    0.00000000
     atom    3 type  2   force =     0.00000000    0.00092842    0.00000000
     atom    4 type  2   force =     0.00000000   -0.00092842    0.00000000
     atom    5 type  2   force =     0.00000000    0.00381816    0.00033494
     atom    6 type  2   force =     0.00000000   -0.00381816   -0.00033494
     atom    7 type  2   force =     0.00000000    0.00381816   -0.00033494
     atom    8 type  2   force =     0.00000000   -0.00381816    0.00033494
     atom    9 type  2   force =     0.00000000    0.01839826    0.01588985
     atom   10 type  2   force =     0.00000000   -0.01839826   -0.01588985
     atom   11 type  2   force =    -0.00000000    0.01839826   -0.01588985
     atom   12 type  2   force =     0.00000000   -0.01839826    0.01588985

     Total force =     0.055256     Total SCF correction =     0.000010


     Computing stress (Cartesian axis) and pressure

          total   stress  (Ry/bohr**3)                   (kbar)     P=       -4.27
  -0.00001882   0.00000000   0.00000000           -2.77        0.00        0.00
   0.00000000  -0.00002821   0.00000000            0.00       -4.15        0.00
   0.00000000   0.00000000  -0.00004014            0.00        0.00       -5.90

 
     init_run     :     36.50s CPU     37.78s WALL (       1 calls)
     electrons    :   1613.30s CPU   1629.68s WALL (       1 calls)
     forces       :      7.70s CPU      8.00s WALL (       1 calls)
     stress       :     53.82s CPU     54.61s WALL (       1 calls)

     Called by init_run:
     wfcinit      :     31.40s CPU     31.65s WALL (       1 calls)
     potinit      :      1.59s CPU      1.65s WALL (       1 calls)
     hinit0       :      1.76s CPU      2.43s WALL (       1 calls)

     Called by electrons:
     c_bands      :   1323.12s CPU   1330.46s WALL (      16 calls)
     sum_band     :    261.41s CPU    266.72s WALL (      16 calls)
     v_of_rho     :      7.41s CPU      7.97s WALL (      16 calls)
     newd         :     15.59s CPU     18.99s WALL (      16 calls)
     PAW_pot      :      5.69s CPU      5.70s WALL (      16 calls)
     mix_rho      :      1.28s CPU      1.33s WALL (      16 calls)

     Called by c_bands:
     init_us_2    :     12.43s CPU     12.49s WALL (    2205 calls)
     cegterg      :   1254.96s CPU   1261.65s WALL (    1008 calls)

     Called by *egterg:
     cdiaghg      :     27.10s CPU     27.22s WALL (    7674 calls)
     h_psi        :   1085.18s CPU   1091.58s WALL (    7800 calls)
     s_psi        :     48.61s CPU     48.72s WALL (    7800 calls)
     g_psi        :      2.23s CPU      2.24s WALL (    6729 calls)

     Called by h_psi:
     h_psi:calbec :     41.30s CPU     41.40s WALL (    7800 calls)
     vloc_psi     :    991.63s CPU    997.73s WALL (    7800 calls)
     add_vuspsi   :     48.44s CPU     48.55s WALL (    7800 calls)

     General routines
     calbec       :     53.16s CPU     53.30s WALL (    9123 calls)
     fft          :      6.87s CPU      7.53s WALL (     232 calls)
     ffts         :      0.17s CPU      0.17s WALL (      32 calls)
     fftw         :    981.43s CPU    987.35s WALL (  394706 calls)
     interpolate  :      0.60s CPU      0.60s WALL (      16 calls)
 
     Parallel routines
     fft_scatt_xy :    263.52s CPU    265.08s WALL (  394970 calls)
     fft_scatt_yz :    189.45s CPU    190.95s WALL (  394970 calls)
 
     PWSCF        :  28m31.65s CPU  28m55.22s WALL

 
   This run was terminated on:  15:15:18  19Nov2021            

=------------------------------------------------------------------------------=
   JOB DONE.
=------------------------------------------------------------------------------=
