
     Program PWSCF v.6.7MaX starts on 19Nov2021 at 15: 0:52 

     This program is part of the open-source Quantum ESPRESSO suite
     for quantum simulation of materials; please cite
         "P. Giannozzi et al., J. Phys.:Condens. Matter 21 395502 (2009);
         "P. Giannozzi et al., J. Phys.:Condens. Matter 29 465901 (2017);
          URL http://www.quantum-espresso.org", 
     in publications or presentations arising from this work. More details at
     http://www.quantum-espresso.org/quote

     Parallel version (MPI), running on    10 processors

     MPI processes distributed on     1 nodes
     R & G space division:  proc/nbgrp/npool/nimage =      10
     Waiting for input...
     Reading input from standard input

     Current dimensions of program PWSCF are:
     Max number of different atomic species (ntypx) = 10
     Max number of k-points (npk) =  40000
     Max angular momentum in pseudopotentials (lmaxx) =  3
     file Zr.pbe-spn-kjpaw_psl.1.0.0.UPF: wavefunction(s)  4S 4P renormalized
     file Te.pbe-n-kjpaw_psl.1.0.0.UPF: wavefunction(s)  5S 5P renormalized

     Subspace diagonalization in iterative solution of the eigenvalue problem:
     a serial algorithm will be used

     Message from routine setup:
     using ibrav=0 with symmetry is DISCOURAGED, use correct ibrav instead
 
     Parallelization info
     --------------------
     sticks:   dense  smooth     PW     G-vecs:    dense   smooth      PW
     Min         734     293     87               115340    29174    4753
     Max         735     295     88               115345    29176    4760
     Sum        7345    2937    873              1153415   291749   47557
 


     bravais-lattice index     =            0
     lattice parameter (alat)  =      15.5510  a.u.
     unit-cell volume          =    3018.5011 (a.u.)^3
     number of atoms/cell      =           12
     number of atomic types    =            2
     number of electrons       =        84.00
     number of Kohn-Sham states=           50
     kinetic-energy cutoff     =      80.0000  Ry
     charge density cutoff     =     800.0000  Ry
     scf convergence threshold =      1.0E-10
     mixing beta               =       0.7000
     number of iterations used =            8  plain     mixing
     Exchange-correlation= SLA  PW   PBX  PBC
                           (   1   4   3   4   0   0   0)

     celldm(1)=  15.551040  celldm(2)=   0.000000  celldm(3)=   0.000000
     celldm(4)=   0.000000  celldm(5)=   0.000000  celldm(6)=   0.000000

     crystal axes: (cart. coord. in units of alat)
               a(1) = (   0.246007  -0.969268   0.000000 )  
               a(2) = (   0.246007   0.969268   0.000000 )  
               a(3) = (   0.000000   0.000000   1.683031 )  

     reciprocal axes: (cart. coord. in units 2 pi/alat)
               b(1) = (  2.032465 -0.515853  0.000000 )  
               b(2) = (  2.032465  0.515853  0.000000 )  
               b(3) = (  0.000000  0.000000  0.594166 )  


     PseudoPot. # 1 for Zr read from file:
     pseudo/Zr.pbe-spn-kjpaw_psl.1.0.0.UPF
     MD5 check sum: 02112c41713a0468aff2bb39ef194e36
     Pseudo is Projector augmented-wave + core cor, Zval = 12.0
     Generated using &quot;atomic&quot; code by A. Dal Corso  v.6.2.2
     Shape of augmentation charge: PSQ
     Using radial grid of 1225 points,  6 beta functions with: 
                l(1) =   0
                l(2) =   0
                l(3) =   1
                l(4) =   1
                l(5) =   2
                l(6) =   2
     Q(r) pseudized with 0 coefficients 


     PseudoPot. # 2 for Te read from file:
     pseudo/Te.pbe-n-kjpaw_psl.1.0.0.UPF
     MD5 check sum: 66247bff2bd9dbf220fbb0bf5ab56e9d
     Pseudo is Projector augmented-wave + core cor, Zval =  6.0
     Generated using &quot;atomic&quot; code by A. Dal Corso  v.6.3
     Shape of augmentation charge: PSQ
     Using radial grid of 1245 points,  6 beta functions with: 
                l(1) =   0
                l(2) =   0
                l(3) =   1
                l(4) =   1
                l(5) =   2
                l(6) =   2
     Q(r) pseudized with 0 coefficients 


     atomic species   valence    mass     pseudopotential
        Zr            12.00    91.22000     Zr( 1.00)
        Te             6.00   127.60000     Te( 1.00)

      8 Sym. Ops., with inversion, found ( 4 have fractional translation)



   Cartesian axes

     site n.     atom                  positions (alat units)
         1           Zr  tau(   1) = (   0.0000000   0.6138084   0.4207578  )
         2           Zr  tau(   2) = (   0.2460067   0.3554597   1.2622733  )
         3           Te  tau(   3) = (   0.2460067   0.3344132   0.4207578  )
         4           Te  tau(   4) = (   0.0000000   0.6348549   1.2622733  )
         5           Te  tau(   5) = (   0.2460067   0.8060927   0.2495152  )
         6           Te  tau(   6) = (   0.0000000   0.1631754   1.4335159  )
         7           Te  tau(   7) = (   0.2460067   0.8060927   0.5920004  )
         8           Te  tau(   8) = (   0.0000000   0.1631754   1.0910307  )
         9           Te  tau(   9) = (   0.0000000   0.4005250   0.7171754  )
        10           Te  tau(  10) = (   0.2460067   0.5687431   0.9658556  )
        11           Te  tau(  11) = (   0.0000000   0.4005250   0.1243401  )
        12           Te  tau(  12) = (   0.2460067   0.5687431   1.5586910  )

     number of k points=    63  Methfessel-Paxton smearing, width (Ry)=  0.0030
                       cart. coord. in units 2pi/alat
        k(    1) = (   0.0000000   0.0000000   0.0000000), wk =   0.0078125
        k(    2) = (   0.0000000   0.0000000   0.1485415), wk =   0.0156250
        k(    3) = (   0.0000000   0.0000000  -0.2970830), wk =   0.0078125
        k(    4) = (   0.2540581   0.0644816   0.0000000), wk =   0.0312500
        k(    5) = (   0.2540581   0.0644816   0.1485415), wk =   0.0625000
        k(    6) = (   0.2540581   0.0644816  -0.2970830), wk =   0.0312500
        k(    7) = (   0.5081162   0.1289633   0.0000000), wk =   0.0312500
        k(    8) = (   0.5081162   0.1289633   0.1485415), wk =   0.0625000
        k(    9) = (   0.5081162   0.1289633  -0.2970830), wk =   0.0312500
        k(   10) = (   0.7621743   0.1934449   0.0000000), wk =   0.0312500
        k(   11) = (   0.7621743   0.1934449   0.1485415), wk =   0.0625000
        k(   12) = (   0.7621743   0.1934449  -0.2970830), wk =   0.0312500
        k(   13) = (  -1.0162324  -0.2579266   0.0000000), wk =   0.0156250
        k(   14) = (  -1.0162324  -0.2579266   0.1485415), wk =   0.0312500
        k(   15) = (  -1.0162324  -0.2579266  -0.2970830), wk =   0.0156250
        k(   16) = (   0.5081162   0.0000000   0.0000000), wk =   0.0156250
        k(   17) = (   0.5081162   0.0000000   0.1485415), wk =   0.0312500
        k(   18) = (   0.5081162   0.0000000  -0.2970830), wk =   0.0156250
        k(   19) = (   0.7621743   0.0644816   0.0000000), wk =   0.0312500
        k(   20) = (   0.7621743   0.0644816   0.1485415), wk =   0.0625000
        k(   21) = (   0.7621743   0.0644816  -0.2970830), wk =   0.0312500
        k(   22) = (   1.0162324   0.1289633   0.0000000), wk =   0.0312500
        k(   23) = (   1.0162324   0.1289633   0.1485415), wk =   0.0625000
        k(   24) = (   1.0162324   0.1289633  -0.2970830), wk =   0.0312500
        k(   25) = (  -0.7621743  -0.3224082   0.0000000), wk =   0.0312500
        k(   26) = (  -0.7621743  -0.3224082   0.1485415), wk =   0.0625000
        k(   27) = (  -0.7621743  -0.3224082  -0.2970830), wk =   0.0312500
        k(   28) = (  -0.5081162  -0.2579266   0.0000000), wk =   0.0312500
        k(   29) = (  -0.5081162  -0.2579266   0.1485415), wk =   0.0625000
        k(   30) = (  -0.5081162  -0.2579266  -0.2970830), wk =   0.0312500
        k(   31) = (  -0.2540581  -0.1934449   0.0000000), wk =   0.0312500
        k(   32) = (  -0.2540581  -0.1934449   0.1485415), wk =   0.0625000
        k(   33) = (  -0.2540581  -0.1934449  -0.2970830), wk =   0.0312500
        k(   34) = (   0.0000000  -0.1289633   0.0000000), wk =   0.0156250
        k(   35) = (   0.0000000  -0.1289633   0.1485415), wk =   0.0312500
        k(   36) = (   0.0000000  -0.1289633  -0.2970830), wk =   0.0156250
        k(   37) = (   1.0162324   0.0000000   0.0000000), wk =   0.0156250
        k(   38) = (   1.0162324   0.0000000   0.1485415), wk =   0.0312500
        k(   39) = (   1.0162324   0.0000000  -0.2970830), wk =   0.0156250
        k(   40) = (   1.2702905   0.0644816   0.0000000), wk =   0.0312500
        k(   41) = (   1.2702905   0.0644816   0.1485415), wk =   0.0625000
        k(   42) = (   1.2702905   0.0644816  -0.2970830), wk =   0.0312500
        k(   43) = (  -0.5081162  -0.3868899   0.0000000), wk =   0.0312500
        k(   44) = (  -0.5081162  -0.3868899   0.1485415), wk =   0.0625000
        k(   45) = (  -0.5081162  -0.3868899  -0.2970830), wk =   0.0312500
        k(   46) = (  -0.2540581  -0.3224082   0.0000000), wk =   0.0312500
        k(   47) = (  -0.2540581  -0.3224082   0.1485415), wk =   0.0625000
        k(   48) = (  -0.2540581  -0.3224082  -0.2970830), wk =   0.0312500
        k(   49) = (   0.0000000  -0.2579266   0.0000000), wk =   0.0156250
        k(   50) = (   0.0000000  -0.2579266   0.1485415), wk =   0.0312500
        k(   51) = (   0.0000000  -0.2579266  -0.2970830), wk =   0.0156250
        k(   52) = (   1.5243485   0.0000000   0.0000000), wk =   0.0156250
        k(   53) = (   1.5243485   0.0000000   0.1485415), wk =   0.0312500
        k(   54) = (   1.5243485   0.0000000  -0.2970830), wk =   0.0156250
        k(   55) = (  -0.2540581  -0.4513715   0.0000000), wk =   0.0312500
        k(   56) = (  -0.2540581  -0.4513715   0.1485415), wk =   0.0625000
        k(   57) = (  -0.2540581  -0.4513715  -0.2970830), wk =   0.0312500
        k(   58) = (   0.0000000  -0.3868899   0.0000000), wk =   0.0156250
        k(   59) = (   0.0000000  -0.3868899   0.1485415), wk =   0.0312500
        k(   60) = (   0.0000000  -0.3868899  -0.2970830), wk =   0.0156250
        k(   61) = (  -2.0324647   0.0000000   0.0000000), wk =   0.0078125
        k(   62) = (  -2.0324647   0.0000000   0.1485415), wk =   0.0156250
        k(   63) = (  -2.0324647   0.0000000  -0.2970830), wk =   0.0078125

     Dense  grid:  1153415 G-vectors     FFT dimensions: ( 144, 144, 240)

     Smooth grid:   291749 G-vectors     FFT dimensions: (  90,  90, 150)

     Estimated max dynamical RAM per process >     657.19 MB

     Estimated total dynamical RAM >       6.42 GB

     Initial potential from superposition of free atoms

     starting charge   83.99353, renormalised to   84.00000
     Starting wfcs are   66 randomized atomic wfcs
     Checking if some PAW data can be deallocated... 

     total cpu time spent up to now is       38.0 secs

     Self-consistent Calculation

     iteration #  1     ecut=    80.00 Ry     beta= 0.70
     Davidson diagonalization with overlap
     ethr =  1.00E-02,  avg # of iterations =  2.0

     Threshold (ethr) on eigenvalues was too large:
     Diagonalizing with lowered threshold

     Davidson diagonalization with overlap
     ethr =  3.65E-04,  avg # of iterations =  4.1

     total cpu time spent up to now is      204.0 secs

     total energy              =   -4240.70619525 Ry
     estimated scf accuracy    <       0.42383126 Ry

     iteration #  2     ecut=    80.00 Ry     beta= 0.70
     Davidson diagonalization with overlap
     ethr =  5.05E-04,  avg # of iterations =  7.3

     total cpu time spent up to now is      317.1 secs

     total energy              =   -4240.61423413 Ry
     estimated scf accuracy    <       2.18429929 Ry

     iteration #  3     ecut=    80.00 Ry     beta= 0.70
     Davidson diagonalization with overlap
     ethr =  5.05E-04,  avg # of iterations =  5.1

     total cpu time spent up to now is      415.2 secs

     total energy              =   -4240.90344028 Ry
     estimated scf accuracy    <       0.02192673 Ry

     iteration #  4     ecut=    80.00 Ry     beta= 0.70
     Davidson diagonalization with overlap
     c_bands:  2 eigenvalues not converged
     c_bands:  1 eigenvalues not converged
     c_bands:  1 eigenvalues not converged
     c_bands:  2 eigenvalues not converged
     c_bands:  1 eigenvalues not converged
     c_bands:  2 eigenvalues not converged
     ethr =  2.61E-05,  avg # of iterations = 15.7

     total cpu time spent up to now is      576.9 secs

     total energy              =   -4240.92286390 Ry
     estimated scf accuracy    <       0.09091831 Ry

     iteration #  5     ecut=    80.00 Ry     beta= 0.70
     Davidson diagonalization with overlap
     ethr =  2.61E-05,  avg # of iterations =  4.4

     total cpu time spent up to now is      660.2 secs

     total energy              =   -4240.92450378 Ry
     estimated scf accuracy    <       0.02235822 Ry

     iteration #  6     ecut=    80.00 Ry     beta= 0.70
     Davidson diagonalization with overlap
     ethr =  2.61E-05,  avg # of iterations =  2.6

     total cpu time spent up to now is      733.8 secs

     total energy              =   -4240.92572979 Ry
     estimated scf accuracy    <       0.00290877 Ry

     iteration #  7     ecut=    80.00 Ry     beta= 0.70
     Davidson diagonalization with overlap
     c_bands:  1 eigenvalues not converged
     c_bands:  1 eigenvalues not converged
     c_bands:  2 eigenvalues not converged
     c_bands:  1 eigenvalues not converged
     c_bands:  1 eigenvalues not converged
     c_bands:  1 eigenvalues not converged
     ethr =  3.46E-06,  avg # of iterations = 13.1

     total cpu time spent up to now is      862.0 secs

     total energy              =   -4240.92739858 Ry
     estimated scf accuracy    <       0.00275436 Ry

     iteration #  8     ecut=    80.00 Ry     beta= 0.70
     Davidson diagonalization with overlap
     c_bands:  1 eigenvalues not converged
     ethr =  3.28E-06,  avg # of iterations =  2.5

     total cpu time spent up to now is      932.3 secs

     total energy              =   -4240.92739917 Ry
     estimated scf accuracy    <       0.00060476 Ry

     iteration #  9     ecut=    80.00 Ry     beta= 0.70
     Davidson diagonalization with overlap
     ethr =  7.20E-07,  avg # of iterations =  6.0

     total cpu time spent up to now is     1017.6 secs

     total energy              =   -4240.92752980 Ry
     estimated scf accuracy    <       0.00000428 Ry

     iteration # 10     ecut=    80.00 Ry     beta= 0.70
     Davidson diagonalization with overlap
     c_bands:  1 eigenvalues not converged
     c_bands:  1 eigenvalues not converged
     ethr =  5.09E-09,  avg # of iterations = 11.7

     total cpu time spent up to now is     1172.4 secs

     total energy              =   -4240.92754845 Ry
     estimated scf accuracy    <       0.00001866 Ry

     iteration # 11     ecut=    80.00 Ry     beta= 0.70
     Davidson diagonalization with overlap
     ethr =  5.09E-09,  avg # of iterations =  5.0

     total cpu time spent up to now is     1265.1 secs

     total energy              =   -4240.92755143 Ry
     estimated scf accuracy    <       0.00000006 Ry

     iteration # 12     ecut=    80.00 Ry     beta= 0.70
     Davidson diagonalization with overlap
     c_bands:  1 eigenvalues not converged
     c_bands:  1 eigenvalues not converged
     ethr =  7.49E-11,  avg # of iterations =  8.8

     total cpu time spent up to now is     1388.4 secs

     total energy              =   -4240.92755149 Ry
     estimated scf accuracy    <       0.00000012 Ry

     iteration # 13     ecut=    80.00 Ry     beta= 0.70
     Davidson diagonalization with overlap
     c_bands:  1 eigenvalues not converged
     ethr =  7.49E-11,  avg # of iterations =  3.8

     total cpu time spent up to now is     1469.2 secs

     total energy              =   -4240.92755150 Ry
     estimated scf accuracy    <          1.5E-09 Ry

     iteration # 14     ecut=    80.00 Ry     beta= 0.70
     Davidson diagonalization with overlap
     ethr =  1.77E-12,  avg # of iterations =  9.9

     total cpu time spent up to now is     1608.7 secs

     total energy              =   -4240.92755150 Ry
     estimated scf accuracy    <          4.9E-09 Ry

     iteration # 15     ecut=    80.00 Ry     beta= 0.70
     Davidson diagonalization with overlap
     ethr =  1.77E-12,  avg # of iterations =  3.3

     total cpu time spent up to now is     1690.8 secs

     total energy              =   -4240.92755150 Ry
     estimated scf accuracy    <          4.8E-10 Ry

     iteration # 16     ecut=    80.00 Ry     beta= 0.70
     Davidson diagonalization with overlap
     ethr =  5.66E-13,  avg # of iterations =  6.0

     total cpu time spent up to now is     1791.3 secs

     total energy              =   -4240.92755150 Ry
     estimated scf accuracy    <          2.6E-10 Ry

     iteration # 17     ecut=    80.00 Ry     beta= 0.70
     Davidson diagonalization with overlap
     ethr =  3.10E-13,  avg # of iterations =  1.0

     total cpu time spent up to now is     1853.4 secs

     total energy              =   -4240.92755150 Ry
     estimated scf accuracy    <          1.1E-10 Ry

     iteration # 18     ecut=    80.00 Ry     beta= 0.70
     Davidson diagonalization with overlap
     ethr =  1.26E-13,  avg # of iterations =  3.0

     total cpu time spent up to now is     1915.4 secs

     End of self-consistent calculation

          k = 0.0000 0.0000 0.0000 ( 36359 PWs)   bands (ev):

   -44.1655 -44.1655 -22.3141 -22.3140 -22.2057 -22.2057 -22.0852 -22.0851
    -7.6267  -7.2040  -6.8010  -6.7640  -6.6574  -5.2431  -5.1788  -4.9348
    -4.8762  -3.8663   0.4824   0.6427   0.8061   1.0304   1.4679   1.6386
     2.4000   2.5542   2.5601   2.9898   3.0376   3.0713   3.2459   3.4808
     3.5159   3.5213   3.8588   4.0351   4.0441   4.2685   4.3105   4.6171
     5.2952   5.5248   5.5328   5.5534   5.8771   6.0899   6.4677   6.7518
     6.9287   7.3189

          k = 0.0000 0.0000 0.1485 ( 36415 PWs)   bands (ev):

   -44.1655 -44.1655 -22.3141 -22.3140 -22.2057 -22.2057 -22.0852 -22.0851
    -7.5885  -7.3152  -6.7936  -6.7690  -6.4801  -5.6776  -4.9614  -4.8896
    -4.7046  -3.9810   0.5133   0.6810   0.9029   1.0629   1.0729   2.0806
     2.1369   2.4204   2.5296   3.0462   3.0793   3.1791   3.2743   3.3491
     3.6517   3.6803   3.8129   4.0025   4.0213   4.2877   4.3214   4.6411
     4.9940   5.0726   5.6724   5.9113   6.0762   6.1115   6.5623   6.7366
     6.7715   7.3038

          k = 0.0000 0.0000-0.2971 ( 36410 PWs)   bands (ev):

   -44.1655 -44.1655 -22.3141 -22.3141 -22.2057 -22.2057 -22.0851 -22.0851
    -7.4780  -7.4780  -6.7811  -6.7811  -6.1151  -6.1151  -4.9224  -4.9224
    -4.2881  -4.2881   0.6760   0.6760   0.8262   0.8262   1.5002   1.5002
     2.4728   2.4728   2.7087   2.7087   3.1104   3.1104   3.3013   3.3013
     3.8059   3.8059   3.8616   3.8616   4.3065   4.3065   4.4353   4.4353
     4.7451   4.7451   5.9523   5.9523   6.2724   6.2724   6.3864   6.3864
     7.2002   7.2002

          k = 0.2541 0.0645 0.0000 ( 36396 PWs)   bands (ev):

   -44.1651 -44.1651 -22.3121 -22.3121 -22.2158 -22.2158 -22.0839 -22.0838
    -7.5131  -7.1125  -6.7191  -6.7029  -6.6023  -5.2164  -5.1572  -4.8949
    -4.8355  -4.0008   0.5703   0.7808   0.9450   1.1472   1.2285   1.5414
     1.9526   2.1898   2.2189   2.5065   2.6004   2.9484   3.5371   3.6038
     3.6346   3.6835   3.7048   3.8439   4.0776   4.0817   4.1838   4.2817
     4.4551   4.7720   5.6318   6.0134   6.3265   6.5376   6.6021   6.8199
     7.0066   7.1487

          k = 0.2541 0.0645 0.1485 ( 36423 PWs)   bands (ev):

   -44.1651 -44.1651 -22.3121 -22.3121 -22.2158 -22.2158 -22.0838 -22.0838
    -7.4759  -7.2135  -6.7337  -6.7228  -6.4007  -5.6220  -4.9381  -4.8511
    -4.7060  -4.0928   0.5891   0.8216   0.9706   1.0079   1.1366   1.6416
     1.8879   2.2657   2.5167   2.5708   2.6024   2.9010   3.2329   3.3086
     3.6027   3.6995   3.7821   3.8658   3.9784   4.0700   4.2106   4.2694
     4.7145   5.1115   5.7610   5.8144   6.2291   6.2842   6.4981   6.6511
     7.2619   7.2810

          k = 0.2541 0.0645-0.2971 ( 36436 PWs)   bands (ev):

   -44.1651 -44.1651 -22.3121 -22.3121 -22.2158 -22.2158 -22.0838 -22.0838
    -7.3687  -7.3687  -6.7325  -6.7325  -6.0410  -6.0410  -4.8894  -4.8894
    -4.3478  -4.3478   0.7120   0.7120   0.9270   0.9270   1.3398   1.3398
     2.2479   2.2479   2.6280   2.6280   2.7660   2.7660   3.0705   3.0705
     3.5652   3.5652   3.8291   3.8291   3.9888   3.9888   4.2633   4.2633
     5.2490   5.2490   5.7327   5.7327   6.0443   6.0443   6.4928   6.4928
     7.4238   7.4238

          k = 0.5081 0.1290 0.0000 ( 36499 PWs)   bands (ev):

   -44.1642 -44.1642 -22.3074 -22.3074 -22.2403 -22.2403 -22.0807 -22.0807
    -7.1969  -6.8945  -6.5903  -6.4230  -6.4177  -5.1847  -5.1417  -4.7896
    -4.7354  -4.4088   0.4664   0.7552   0.8296   1.1535   1.3480   1.4795
     1.6446   1.7838   1.9589   2.1737   2.2015   2.2530   2.5991   3.1562
     3.2987   3.3858   3.4265   3.5419   3.7674   3.8231   4.0089   4.1496
     4.7476   5.3090   5.4196   5.7909   5.8735   6.5162   6.5314   6.7994
     7.3412   7.5470

          k = 0.5081 0.1290 0.1485 ( 36476 PWs)   bands (ev):

   -44.1642 -44.1642 -22.3074 -22.3074 -22.2403 -22.2403 -22.0807 -22.0807
    -7.1642  -6.9547  -6.5927  -6.5549  -6.1655  -5.4913  -4.9404  -4.7644
    -4.7099  -4.4417   0.4925   0.7688   0.9504   1.0979   1.1935   1.4198
     1.4652   1.6900   2.0423   2.0593   2.3375   2.5897   2.8984   3.1969
     3.2842   3.3842   3.4583   3.5613   3.6090   3.8160   3.8506   4.2093
     4.4490   4.6320   5.9637   6.0308   6.2189   6.5307   6.5715   6.6916
     7.1935   7.4756

          k = 0.5081 0.1290-0.2971 ( 36466 PWs)   bands (ev):

   -44.1642 -44.1642 -22.3074 -22.3074 -22.2403 -22.2403 -22.0807 -22.0807
    -7.0728  -7.0728  -6.5907  -6.5907  -5.8409  -5.8409  -4.8352  -4.8352
    -4.5486  -4.5486   0.6228   0.6228   1.1073   1.1073   1.2718   1.2718
     1.3609   1.3609   2.0595   2.0595   2.8108   2.8108   3.0771   3.0771
     3.2920   3.2920   3.5329   3.5329   3.7185   3.7185   3.8745   3.8745
     4.3010   4.3010   6.1866   6.1866   6.5244   6.5244   6.7531   6.7531
     7.0847   7.0847

          k = 0.7622 0.1934 0.0000 ( 36521 PWs)   bands (ev):

   -44.1632 -44.1632 -22.3025 -22.3025 -22.2647 -22.2647 -22.0776 -22.0775
    -6.8190  -6.7109  -6.3233  -6.0564  -6.0115  -5.2812  -5.2545  -5.0398
    -4.6689  -4.6338  -0.0050   0.3426   0.6680   1.1735   1.1816   1.2187
     1.4773   1.5822   1.8963   1.9396   2.2510   2.4733   2.5571   2.7031
     2.7339   3.2459   3.2658   3.3133   3.6438   3.6494   3.7797   3.9052
     4.0397   4.5769   5.7351   6.1207   6.1981   6.6037   6.6755   6.7619
     7.1632   7.6525

          k = 0.7622 0.1934 0.1485 ( 36503 PWs)   bands (ev):

   -44.1632 -44.1632 -22.3025 -22.3025 -22.2647 -22.2647 -22.0776 -22.0775
    -6.8023  -6.7251  -6.3157  -6.1920  -5.8254  -5.4053  -5.1830  -5.0619
    -4.6571  -4.6336   0.0787   0.4391   0.5609   0.9650   1.1735   1.2133
     1.4930   1.6210   1.7371   2.0933   2.1266   2.6430   2.6532   2.8030
     2.8572   3.1808   3.2744   3.3564   3.4423   3.6625   3.7032   3.8645
     4.0270   4.8555   5.2790   6.1930   6.4981   6.5280   6.6715   6.8736
     6.9397   7.4132

          k = 0.7622 0.1934-0.2971 ( 36522 PWs)   bands (ev):

   -44.1632 -44.1632 -22.3025 -22.3025 -22.2647 -22.2647 -22.0775 -22.0775
    -6.7625  -6.7625  -6.2808  -6.2808  -5.6026  -5.6026  -5.1161  -5.1161
    -4.6397  -4.6397   0.2942   0.2942   0.7382   0.7382   1.0600   1.0600
     1.5729   1.5729   1.9533   1.9533   2.3819   2.3819   2.7977   2.7977
     2.9872   2.9872   3.4351   3.4351   3.5550   3.5550   3.7635   3.7635
     4.2412   4.2412   5.9302   5.9302   6.3364   6.3364   6.7566   6.7566
     7.2578   7.2578

          k =-1.0162-0.2579 0.0000 ( 36506 PWs)   bands (ev):

   -44.1628 -44.1628 -22.3003 -22.3003 -22.2750 -22.2750 -22.0762 -22.0762
    -6.6753  -6.6551  -5.7660  -5.7590  -5.5963  -5.5925  -5.5800  -5.5643
    -4.6101  -4.5953   0.1070   0.1352   0.4631   0.4800   1.0119   1.0184
     1.4713   1.6769   2.2112   2.3104   2.3124   2.3170   2.8072   2.8440
     2.8526   2.9879   3.2526   3.2661   3.3129   3.4925   3.5742   3.6874
     3.8721   3.8943   6.2999   6.3349   6.4021   6.4888   6.8969   6.9441
     6.9570   6.9637

          k =-1.0162-0.2579 0.1485 ( 36506 PWs)   bands (ev):

   -44.1628 -44.1628 -22.3003 -22.3003 -22.2750 -22.2750 -22.0762 -22.0762
    -6.6718  -6.6574  -5.7572  -5.7511  -5.6673  -5.6628  -5.5082  -5.5000
    -4.6153  -4.6049   0.0274   0.0372   0.6655   0.6681   1.0429   1.0713
     1.4598   1.5593   1.9208   1.9698   2.3467   2.3555   2.7686   2.7863
     2.9461   2.9633   3.2099   3.2481   3.5074   3.5534   3.6979   3.7372
     4.1401   4.1620   5.8152   5.8195   6.3402   6.4098   6.7994   6.8410
     7.1858   7.2029

          k =-1.0162-0.2579-0.2971 ( 36528 PWs)   bands (ev):

   -44.1628 -44.1628 -22.3003 -22.3003 -22.2750 -22.2750 -22.0762 -22.0762
    -6.6640  -6.6640  -5.7317  -5.7317  -5.7152  -5.7152  -5.4705  -5.4705
    -4.6177  -4.6177  -0.0236  -0.0236   0.8753   0.8753   1.1256   1.1256
     1.4364   1.4364   1.6421   1.6421   2.3507   2.3507   2.7986   2.7986
     2.9234   2.9234   3.2484   3.2484   3.5566   3.5566   3.7614   3.7614
     4.7266   4.7266   5.1558   5.1558   6.3122   6.3122   6.8306   6.8306
     7.2432   7.2432

          k = 0.5081 0.0000 0.0000 ( 36503 PWs)   bands (ev):

   -44.1642 -44.1642 -22.3074 -22.3074 -22.2403 -22.2403 -22.0807 -22.0807
    -7.2035  -6.8979  -6.5820  -6.4245  -6.4123  -5.1857  -5.1378  -4.7863
    -4.7398  -4.4084   0.4641   0.7535   0.8367   1.1190   1.3436   1.4594
     1.6515   1.7870   1.9696   2.1374   2.2054   2.2258   2.6086   3.1367
     3.3008   3.3825   3.4807   3.5735   3.7752   3.8087   4.0422   4.1877
     4.7500   5.3151   5.4267   5.8205   5.8543   6.4767   6.4799   6.8346
     7.3725   7.5554

          k = 0.5081 0.0000 0.1485 ( 36453 PWs)   bands (ev):

   -44.1642 -44.1642 -22.3074 -22.3074 -22.2403 -22.2403 -22.0807 -22.0807
    -7.1707  -6.9598  -6.5839  -6.5490  -6.1662  -5.4923  -4.9334  -4.7658
    -4.7115  -4.4424   0.4897   0.7637   0.9571   1.0999   1.1623   1.4062
     1.4577   1.6890   2.0396   2.0568   2.3323   2.5650   2.8898   3.1834
     3.2773   3.4136   3.4869   3.5901   3.6009   3.8510   3.8527   4.2437
     4.4649   4.6358   5.9683   6.0470   6.2204   6.4793   6.5372   6.7213
     7.2204   7.4782

          k = 0.5081 0.0000-0.2971 ( 36452 PWs)   bands (ev):

   -44.1642 -44.1642 -22.3074 -22.3074 -22.2403 -22.2403 -22.0807 -22.0807
    -7.0791  -7.0791  -6.5825  -6.5825  -5.8423  -5.8423  -4.8308  -4.8308
    -4.5512  -4.5512   0.6180   0.6180   1.1083   1.1083   1.2740   1.2740
     1.3356   1.3356   2.0583   2.0583   2.8012   2.8012   3.0507   3.0507
     3.2852   3.2852   3.5976   3.5976   3.7212   3.7212   3.8779   3.8779
     4.3271   4.3271   6.2016   6.2016   6.4913   6.4913   6.7662   6.7662
     7.0868   7.0868

          k = 0.7622 0.0645 0.0000 ( 36505 PWs)   bands (ev):

   -44.1632 -44.1632 -22.3025 -22.3025 -22.2647 -22.2647 -22.0776 -22.0775
    -6.8286  -6.7096  -6.3136  -6.0551  -6.0147  -5.2817  -5.2486  -5.0396
    -4.6641  -4.6401  -0.0118   0.3546   0.6951   1.1636   1.2186   1.2323
     1.4314   1.5372   1.8719   1.9483   2.1927   2.4592   2.5437   2.6868
     2.6999   3.2959   3.3138   3.3142   3.5892   3.6695   3.8382   3.9328
     4.0578   4.6222   5.7340   6.1334   6.1607   6.5678   6.7175   6.7327
     7.1900   7.6522

          k = 0.7622 0.0645 0.1485 ( 36509 PWs)   bands (ev):

   -44.1632 -44.1632 -22.3025 -22.3025 -22.2647 -22.2647 -22.0776 -22.0775
    -6.8110  -6.7260  -6.3064  -6.1891  -5.8281  -5.4060  -5.1783  -5.0609
    -4.6539  -4.6381   0.0746   0.4473   0.5703   0.9909   1.1909   1.2067
     1.4520   1.6286   1.7447   2.0340   2.0445   2.6364   2.6552   2.7708
     2.8518   3.1796   3.3454   3.3791   3.4031   3.6825   3.7379   3.8820
     4.0772   4.8548   5.3068   6.1799   6.4971   6.5081   6.6889   6.8742
     6.9250   7.4314

          k = 0.7622 0.0645-0.2971 ( 36472 PWs)   bands (ev):

   -44.1632 -44.1632 -22.3025 -22.3025 -22.2647 -22.2647 -22.0775 -22.0775
    -6.7680  -6.7680  -6.2737  -6.2737  -5.6049  -5.6049  -5.1130  -5.1130
    -4.6402  -4.6402   0.2960   0.2960   0.7354   0.7354   1.0868   1.0868
     1.5694   1.5694   1.8972   1.8972   2.3478   2.3478   2.7854   2.7854
     2.9875   2.9875   3.5039   3.5039   3.5540   3.5540   3.7588   3.7588
     4.2661   4.2661   5.9535   5.9535   6.3377   6.3377   6.7215   6.7215
     7.2835   7.2835

          k = 1.0162 0.1290 0.0000 ( 36514 PWs)   bands (ev):

   -44.1628 -44.1628 -22.3003 -22.3003 -22.2750 -22.2750 -22.0762 -22.0762
    -6.6753  -6.6551  -5.7654  -5.7596  -5.5972  -5.5916  -5.5800  -5.5643
    -4.6101  -4.5953   0.1013   0.1410   0.4566   0.4866   1.0070   1.0255
     1.4761   1.6683   2.2163   2.2914   2.3089   2.3212   2.8111   2.8452
     2.8806   2.9811   3.2183   3.2922   3.3215   3.4958   3.5549   3.6933
     3.8808   3.8829   6.3005   6.3359   6.3974   6.4938   6.9040   6.9474
     6.9546   6.9660

          k = 1.0162 0.1290 0.1485 ( 36524 PWs)   bands (ev):

   -44.1628 -44.1628 -22.3003 -22.3003 -22.2750 -22.2750 -22.0762 -22.0762
    -6.6718  -6.6574  -5.7565  -5.7517  -5.6680  -5.6622  -5.5084  -5.4998
    -4.6153  -4.6049   0.0254   0.0387   0.6628   0.6715   1.0473   1.0683
     1.4636   1.5582   1.9172   1.9673   2.3383   2.3514   2.7288   2.8364
     2.9639   2.9756   3.1836   3.2508   3.5070   3.5813   3.6897   3.7093
     4.1456   4.1622   5.8027   5.8339   6.3377   6.4122   6.8062   6.8405
     7.1883   7.2004

          k = 1.0162 0.1290-0.2971 ( 36516 PWs)   bands (ev):

   -44.1628 -44.1628 -22.3003 -22.3003 -22.2750 -22.2750 -22.0762 -22.0762
    -6.6640  -6.6640  -5.7316  -5.7316  -5.7152  -5.7152  -5.4705  -5.4705
    -4.6177  -4.6177  -0.0237  -0.0237   0.8746   0.8746   1.1290   1.1290
     1.4348   1.4348   1.6428   1.6428   2.3401   2.3401   2.7810   2.7810
     2.9702   2.9702   3.2288   3.2288   3.5640   3.5640   3.7520   3.7520
     4.7268   4.7268   5.1575   5.1575   6.3120   6.3120   6.8333   6.8333
     7.2429   7.2429

          k =-0.7622-0.3224 0.0000 ( 36511 PWs)   bands (ev):

   -44.1632 -44.1632 -22.3025 -22.3025 -22.2647 -22.2647 -22.0776 -22.0775
    -6.8035  -6.7144  -6.3372  -6.0583  -6.0069  -5.2806  -5.2628  -5.0401
    -4.6730  -4.6277   0.0048   0.3261   0.6323   1.1568   1.1871   1.1987
     1.4987   1.6548   1.9293   1.9423   2.3411   2.4897   2.5786   2.7263
     2.7734   3.1520   3.2294   3.3459   3.6048   3.6519   3.7456   3.8662
     4.0109   4.5051   5.7371   6.1205   6.2394   6.5945   6.6583   6.8297
     7.1204   7.6573

          k =-0.7622-0.3224 0.1485 ( 36492 PWs)   bands (ev):

   -44.1632 -44.1632 -22.3025 -22.3025 -22.2647 -22.2647 -22.0776 -22.0775
    -6.7886  -6.7248  -6.3291  -6.1964  -5.8214  -5.4044  -5.1895  -5.0633
    -4.6598  -4.6292   0.0841   0.4291   0.5458   0.9375   1.1542   1.2205
     1.5528   1.6104   1.7193   2.1882   2.2409   2.6485   2.6598   2.8339
     2.8661   3.1733   3.2060   3.3378   3.4716   3.6206   3.6687   3.8331
     3.9445   4.8554   5.2415   6.2147   6.4821   6.5472   6.6661   6.8922
     6.9563   7.3825

          k =-0.7622-0.3224-0.2971 ( 36508 PWs)   bands (ev):

   -44.1632 -44.1632 -22.3025 -22.3025 -22.2647 -22.2647 -22.0775 -22.0775
    -6.7545  -6.7545  -6.2911  -6.2911  -5.5993  -5.5993  -5.1204  -5.1204
    -4.6390  -4.6390   0.2913   0.2913   0.7423   0.7423   1.0297   1.0297
     1.5754   1.5754   2.0220   2.0220   2.4440   2.4440   2.8199   2.8199
     2.9849   2.9849   3.3416   3.3416   3.5598   3.5598   3.7512   3.7512
     4.2067   4.2067   5.8991   5.8991   6.3329   6.3329   6.8168   6.8168
     7.2140   7.2140

          k =-0.5081-0.2579 0.0000 ( 36480 PWs)   bands (ev):

   -44.1642 -44.1642 -22.3074 -22.3074 -22.2403 -22.2403 -22.0807 -22.0807
    -7.1799  -6.8868  -6.6099  -6.4319  -6.4193  -5.1822  -5.1513  -4.7948
    -4.7275  -4.4097   0.4733   0.7531   0.8134   1.2519   1.3573   1.5323
     1.6340   1.7781   1.9390   2.2179   2.2373   2.2922   2.5802   3.2093
     3.2999   3.3032   3.3983   3.4388   3.7376   3.8321   3.9611   4.0722
     4.7395   5.2970   5.3926   5.7260   5.9228   6.6134   6.6513   6.7151
     7.2639   7.5567

          k =-0.5081-0.2579 0.1485 ( 36485 PWs)   bands (ev):

   -44.1642 -44.1642 -22.3074 -22.3074 -22.2403 -22.2403 -22.0807 -22.0807
    -7.1474  -6.9421  -6.6134  -6.5709  -6.1639  -5.4887  -4.9560  -4.7625
    -4.7057  -4.4399   0.5000   0.7762   0.9354   1.0935   1.2805   1.4321
     1.5105   1.6867   2.0506   2.0678   2.3474   2.6469   2.9173   3.2321
     3.2782   3.3009   3.4355   3.4599   3.6159   3.7797   3.8289   4.1354
     4.4026   4.6231   5.9347   6.0103   6.2161   6.6182   6.6487   6.6652
     7.1264   7.4728

          k =-0.5081-0.2579-0.2971 ( 36478 PWs)   bands (ev):

   -44.1642 -44.1642 -22.3074 -22.3074 -22.2403 -22.2403 -22.0807 -22.0807
    -7.0567  -7.0567  -6.6113  -6.6113  -5.8375  -5.8375  -4.8454  -4.8454
    -4.5426  -4.5426   0.6340   0.6340   1.1036   1.1036   1.2659   1.2659
     1.4311   1.4311   2.0618   2.0618   2.8352   2.8352   3.1471   3.1471
     3.3077   3.3077   3.3791   3.3791   3.7046   3.7046   3.8657   3.8657
     4.2352   4.2352   6.1483   6.1483   6.5943   6.5943   6.7315   6.7315
     7.0831   7.0831

          k =-0.2541-0.1934 0.0000 ( 36410 PWs)   bands (ev):

   -44.1651 -44.1651 -22.3121 -22.3121 -22.2158 -22.2158 -22.0839 -22.0838
    -7.5010  -7.1002  -6.7360  -6.7003  -6.6201  -5.2143  -5.1646  -4.9017
    -4.8273  -4.0019   0.6039   0.8567   0.9549   1.1696   1.2597   1.5429
     1.9726   2.1964   2.2369   2.4691   2.5755   3.0195   3.4077   3.4946
     3.5640   3.6836   3.7594   3.8466   4.0206   4.0813   4.1572   4.2487
     4.3968   4.7378   5.6782   6.0256   6.3587   6.5611   6.6004   6.8437
     7.0051   7.0758

          k =-0.2541-0.1934 0.1485 ( 36427 PWs)   bands (ev):

   -44.1651 -44.1651 -22.3121 -22.3121 -22.2158 -22.2158 -22.0838 -22.0838
    -7.4637  -7.2008  -6.7510  -6.7359  -6.4030  -5.6200  -4.9556  -4.8473
    -4.6994  -4.0925   0.6162   0.8842   1.0030   1.0480   1.1476   1.6588
     1.8878   2.2690   2.4879   2.5572   2.6195   2.9145   3.2293   3.3240
     3.4688   3.6175   3.7605   3.8746   3.9637   4.0557   4.1535   4.2192
     4.6925   5.0891   5.7671   5.8051   6.1941   6.3176   6.5829   6.6738
     7.2346   7.2570

          k =-0.2541-0.1934-0.2971 ( 36422 PWs)   bands (ev):

   -44.1651 -44.1651 -22.3121 -22.3121 -22.2158 -22.2158 -22.0838 -22.0838
    -7.3563  -7.3563  -6.7493  -6.7493  -6.0393  -6.0393  -4.8961  -4.8961
    -4.3446  -4.3446   0.7313   0.7313   0.9932   0.9932   1.3496   1.3496
     2.2463   2.2463   2.5899   2.5899   2.7844   2.7844   3.1023   3.1023
     3.4671   3.4671   3.7996   3.7996   3.9836   3.9836   4.2062   4.2062
     5.2357   5.2357   5.6970   5.6970   6.0304   6.0304   6.5821   6.5821
     7.4032   7.4034

          k = 0.0000-0.1290 0.0000 ( 36417 PWs)   bands (ev):

   -44.1655 -44.1655 -22.3141 -22.3140 -22.2057 -22.2057 -22.0852 -22.0851
    -7.6203  -7.1967  -6.7996  -6.7736  -6.6676  -5.2421  -5.1827  -4.9399
    -4.8706  -3.8669   0.5106   0.6854   0.8122   1.0325   1.4913   1.6485
     2.4041   2.5584   2.5612   2.9978   3.0652   3.0769   3.2434   3.4132
     3.4449   3.5109   3.8095   4.0207   4.0441   4.2154   4.2618   4.6190
     5.2886   5.5038   5.5399   5.5507   5.8887   6.1298   6.5197   6.7187
     6.9298   7.4570

          k = 0.0000-0.1290 0.1485 ( 36419 PWs)   bands (ev):

   -44.1655 -44.1655 -22.3141 -22.3140 -22.2057 -22.2057 -22.0852 -22.0851
    -7.5821  -7.3082  -6.8013  -6.7772  -6.4824  -5.6766  -4.9718  -4.8868
    -4.7010  -3.9810   0.5372   0.7236   0.9185   1.0637   1.0882   2.0894
     2.1517   2.4248   2.5360   3.0712   3.0734   3.1745   3.2271   3.3019
     3.6441   3.6801   3.7560   3.9781   4.0011   4.2416   4.2767   4.6431
     4.9933   5.0574   5.6784   5.9131   6.0856   6.1170   6.5518   6.7725
     6.7820   7.4329

          k = 0.0000-0.1290-0.2971 ( 36464 PWs)   bands (ev):

   -44.1655 -44.1655 -22.3141 -22.3141 -22.2057 -22.2057 -22.0851 -22.0851
    -7.4714  -7.4714  -6.7901  -6.7901  -6.1145  -6.1145  -4.9259  -4.9259
    -4.2865  -4.2865   0.7102   0.7102   0.8372   0.8372   1.5103   1.5103
     2.4781   2.4781   2.7192   2.7192   3.1048   3.1048   3.2558   3.2558
     3.7856   3.7856   3.8570   3.8570   4.2260   4.2260   4.4460   4.4460
     4.7465   4.7465   5.9337   5.9337   6.2947   6.2947   6.3875   6.3875
     7.2084   7.2084

          k = 1.0162 0.0000 0.0000 ( 36499 PWs)   bands (ev):

   -44.1628 -44.1628 -22.3003 -22.3003 -22.2750 -22.2750 -22.0762 -22.0762
    -6.6753  -6.6551  -5.7645  -5.7605  -5.5978  -5.5909  -5.5800  -5.5643
    -4.6101  -4.5953   0.0970   0.1454   0.4523   0.4911   1.0047   1.0298
     1.4816   1.6590   2.2239   2.2712   2.3072   2.3238   2.8185   2.8343
     2.9250   2.9665   3.2022   3.2979   3.3325   3.4935   3.5400   3.7023
     3.8652   3.8926   6.3011   6.3369   6.3931   6.4985   6.9122   6.9506
     6.9511   6.9683

          k = 1.0162 0.0000 0.1485 ( 36485 PWs)   bands (ev):

   -44.1628 -44.1628 -22.3003 -22.3003 -22.2750 -22.2750 -22.0762 -22.0762
    -6.6718  -6.6574  -5.7557  -5.7525  -5.6685  -5.6617  -5.5086  -5.4997
    -4.6153  -4.6049   0.0238   0.0399   0.6615   0.6734   1.0549   1.0621
     1.4677   1.5569   1.9132   1.9650   2.3315   2.3464   2.7142   2.8538
     2.9705   3.0189   3.1461   3.2519   3.5084   3.6369   3.6519   3.6814
     4.1506   4.1626   5.7973   5.8413   6.3354   6.4144   6.8138   6.8390
     7.1935   7.1952

          k = 1.0162 0.0000-0.2971 ( 36514 PWs)   bands (ev):

   -44.1628 -44.1628 -22.3003 -22.3003 -22.2750 -22.2750 -22.0762 -22.0762
    -6.6640  -6.6640  -5.7316  -5.7316  -5.7153  -5.7153  -5.4705  -5.4705
    -4.6177  -4.6177  -0.0239  -0.0239   0.8740   0.8740   1.1323   1.1323
     1.4331   1.4331   1.6435   1.6435   2.3300   2.3300   2.7693   2.7693
     3.0171   3.0171   3.2029   3.2029   3.5719   3.5719   3.7420   3.7420
     4.7269   4.7269   5.1593   5.1593   6.3118   6.3118   6.8360   6.8360
     7.2427   7.2427

          k = 1.2703 0.0645 0.0000 ( 36468 PWs)   bands (ev):

   -44.1632 -44.1632 -22.3025 -22.3025 -22.2647 -22.2647 -22.0776 -22.0775
    -6.7904  -6.7187  -6.3471  -6.0597  -6.0035  -5.2801  -5.2688  -5.0403
    -4.6751  -4.6242   0.0119   0.3148   0.6085   1.1530   1.1801   1.1963
     1.5010   1.7074   1.9233   1.9805   2.4007   2.5146   2.5953   2.7423
     2.7953   3.0637   3.2301   3.4240   3.5396   3.5564   3.7968   3.8377
     3.9895   4.4462   5.7388   6.1264   6.2670   6.5376   6.7005   6.8841
     7.0834   7.5498

          k = 1.2703 0.0645 0.1485 ( 36490 PWs)   bands (ev):

   -44.1632 -44.1632 -22.3025 -22.3025 -22.2647 -22.2647 -22.0776 -22.0775
    -6.7773  -6.7260  -6.3387  -6.1996  -5.8186  -5.4039  -5.1941  -5.0643
    -4.6611  -4.6267   0.0877   0.4233   0.5339   0.9224   1.1429   1.2249
     1.5971   1.6207   1.6846   2.2648   2.3197   2.6572   2.6702   2.8517
     2.8699   3.0847   3.2541   3.3433   3.4312   3.5874   3.7000   3.7891
     3.8705   4.8545   5.2165   6.2342   6.4507   6.5615   6.6759   6.9169
     6.9670   7.3569

          k = 1.2703 0.0645-0.2971 ( 36480 PWs)   bands (ev):

   -44.1632 -44.1632 -22.3025 -22.3025 -22.2647 -22.2647 -22.0775 -22.0775
    -6.7486  -6.7486  -6.2986  -6.2986  -5.5969  -5.5969  -5.1235  -5.1235
    -4.6385  -4.6385   0.2889   0.2889   0.7451   0.7451   1.0124   1.0124
     1.5770   1.5770   2.0610   2.0610   2.4978   2.4978   2.8594   2.8594
     2.9694   2.9694   3.2639   3.2639   3.5744   3.5744   3.7283   3.7283
     4.1830   4.1830   5.8782   5.8782   6.3297   6.3297   6.8706   6.8706
     7.1740   7.1740

          k =-0.5081-0.3869 0.0000 ( 36463 PWs)   bands (ev):

   -44.1642 -44.1642 -22.3074 -22.3074 -22.2403 -22.2403 -22.0807 -22.0807
    -7.1613  -6.8804  -6.6284  -6.4476  -6.4156  -5.1796  -5.1611  -4.7975
    -4.7220  -4.4106   0.4823   0.7428   0.7983   1.3652   1.3911   1.5775
     1.6189   1.7922   1.9074   2.2491   2.2684   2.3152   2.5784   3.1758
     3.2674   3.3124   3.3145   3.4377   3.7032   3.7451   3.9420   4.0554
     4.7292   5.2877   5.3452   5.6748   5.9774   6.6301   6.7240   6.7649
     7.1753   7.5243

          k =-0.5081-0.3869 0.1485 ( 36477 PWs)   bands (ev):

   -44.1642 -44.1642 -22.3074 -22.3074 -22.2403 -22.2403 -22.0807 -22.0807
    -7.1288  -6.9291  -6.6330  -6.5901  -6.1621  -5.4862  -4.9704  -4.7622
    -4.7009  -4.4381   0.5086   0.7770   0.9218   1.0891   1.4010   1.4345
     1.5624   1.6748   2.0625   2.0829   2.3476   2.6975   2.9340   3.1509
     3.2761   3.3042   3.3415   3.4643   3.6184   3.7336   3.7953   4.0980
     4.3376   4.6153   5.8834   6.0133   6.2147   6.5532   6.7520   6.7786
     7.0467   7.4811

          k =-0.5081-0.3869-0.2971 ( 36492 PWs)   bands (ev):

   -44.1642 -44.1642 -22.3074 -22.3074 -22.2403 -22.2403 -22.0807 -22.0807
    -7.0391  -7.0391  -6.6336  -6.6336  -5.8340  -5.8340  -4.8554  -4.8554
    -4.5370  -4.5370   0.6444   0.6444   1.0983   1.0983   1.2594   1.2594
     1.5171   1.5171   2.0617   2.0617   2.8592   2.8592   3.2116   3.2116
     3.2421   3.2421   3.3294   3.3294   3.6689   3.6689   3.8592   3.8592
     4.1664   4.1664   6.1098   6.1098   6.6202   6.6202   6.7492   6.7492
     7.0890   7.0890

          k =-0.2541-0.3224 0.0000 ( 36485 PWs)   bands (ev):

   -44.1651 -44.1651 -22.3121 -22.3121 -22.2158 -22.2158 -22.0839 -22.0838
    -7.4827  -7.0822  -6.7579  -6.6966  -6.6488  -5.2115  -5.1756  -4.9067
    -4.8198  -4.0033   0.6315   0.9699   0.9869   1.2186   1.3324   1.5422
     2.0047   2.1998   2.2674   2.3830   2.5137   3.1416   3.2369   3.3085
     3.5096   3.7023   3.7826   3.8304   4.0012   4.0328   4.0995   4.2094
     4.3887   4.6677   5.7523   6.0370   6.3844   6.5007   6.6835   6.8788
     6.9660   7.0118

          k =-0.2541-0.3224 0.1485 ( 36445 PWs)   bands (ev):

   -44.1651 -44.1651 -22.3121 -22.3121 -22.2158 -22.2158 -22.0838 -22.0838
    -7.4454  -7.1815  -6.7749  -6.7577  -6.4056  -5.6171  -4.9768  -4.8450
    -4.6908  -4.0920   0.6356   0.9421   1.0945   1.1105   1.2077   1.6838
     1.8925   2.2638   2.4039   2.5219   2.6457   2.9244   3.2275   3.2920
     3.3216   3.4989   3.7964   3.8744   3.9411   4.0378   4.0797   4.1394
     4.6860   5.0502   5.7678   5.8089   6.1787   6.2903   6.6869   6.7224
     7.1761   7.2506

          k =-0.2541-0.3224-0.2971 ( 36442 PWs)   bands (ev):

   -44.1651 -44.1651 -22.3121 -22.3121 -22.2158 -22.2158 -22.0838 -22.0838
    -7.3374  -7.3374  -6.7743  -6.7743  -6.0368  -6.0368  -4.9057  -4.9057
    -4.3400  -4.3400   0.7405   0.7405   1.1284   1.1284   1.3646   1.3646
     2.2384   2.2384   2.5155   2.5155   2.8034   2.8034   3.1598   3.1598
     3.2923   3.2923   3.7969   3.7969   3.9864   3.9864   4.1230   4.1230
     5.2207   5.2207   5.6608   5.6608   5.9983   5.9983   6.6890   6.6890
     7.3720   7.3720

          k = 0.0000-0.2579 0.0000 ( 36445 PWs)   bands (ev):

   -44.1655 -44.1655 -22.3141 -22.3140 -22.2057 -22.2057 -22.0852 -22.0851
    -7.6043  -7.1784  -6.7963  -6.7956  -6.6950  -5.2397  -5.1924  -4.9473
    -4.8616  -3.8685   0.5621   0.8040   0.8272   1.0689   1.5446   1.6716
     2.4143   2.5477   2.5788   3.0352   3.0500   3.1760   3.1851   3.2376
     3.2383   3.4853   3.7780   4.0046   4.0439   4.0730   4.1397   4.6240
     5.2729   5.4301   5.5569   5.6178   5.9174   6.1860   6.6198   6.6298
     6.9322   7.2578

          k = 0.0000-0.2579 0.1485 ( 36452 PWs)   bands (ev):

   -44.1655 -44.1655 -22.3141 -22.3141 -22.2057 -22.2057 -22.0852 -22.0851
    -7.5659  -7.2905  -6.8216  -6.7972  -6.4876  -5.6742  -4.9933  -4.8831
    -4.6929  -3.9808   0.5749   0.8340   0.9875   1.0861   1.1143   2.1130
     2.1838   2.4359   2.5523   3.0561   3.0586   3.1171   3.1573   3.1632
     3.6256   3.6557   3.6964   3.9339   3.9977   4.1230   4.1690   4.6481
     4.9915   5.0337   5.7010   5.9181   6.1009   6.1158   6.5212   6.7750
     6.8681   7.2473

          k = 0.0000-0.2579-0.2971 ( 36454 PWs)   bands (ev):

   -44.1655 -44.1655 -22.3141 -22.3141 -22.2057 -22.2057 -22.0851 -22.0851
    -7.4547  -7.4547  -6.8126  -6.8126  -6.1130  -6.1130  -4.9346  -4.9346
    -4.2826  -4.2826   0.7465   0.7465   0.9245   0.9245   1.5358   1.5358
     2.4915   2.4915   2.7338   2.7338   3.0909   3.0909   3.1025   3.1025
     3.7703   3.7703   3.8461   3.8461   4.0897   4.0897   4.4401   4.4401
     4.7499   4.7499   5.8949   5.8949   6.3287   6.3287   6.3904   6.3904
     7.2028   7.2028

          k = 1.5243 0.0000 0.0000 ( 36439 PWs)   bands (ev):

   -44.1642 -44.1642 -22.3074 -22.3074 -22.2403 -22.2403 -22.0807 -22.0807
    -7.1530  -6.8784  -6.6355  -6.4546  -6.4141  -5.1786  -5.1652  -4.7982
    -4.7202  -4.4110   0.4868   0.7362   0.7923   1.3681   1.5070   1.5445
     1.6105   1.8135   1.8865   2.2674   2.2679   2.3183   2.5878   3.1197
     3.2539   3.2866   3.3260   3.5018   3.6448   3.6913   3.9374   4.0681
     4.7246   5.2844   5.3180   5.6587   6.0022   6.5940   6.7917   6.7978
     7.1301   7.5233

          k = 1.5243 0.0000 0.1485 ( 36476 PWs)   bands (ev):

   -44.1642 -44.1642 -22.3074 -22.3074 -22.2403 -22.2403 -22.0807 -22.0807
    -7.1205  -6.9238  -6.6405  -6.5993  -6.1614  -5.4852  -4.9761  -4.7624
    -4.6989  -4.4374   0.5126   0.7754   0.9165   1.0874   1.4309   1.5164
     1.5221   1.6780   2.0680   2.0943   2.3417   2.7125   2.9457   3.0951
     3.2513   3.3109   3.3238   3.5459   3.5633   3.6980   3.7808   4.1047
     4.2992   4.6124   5.8595   6.0178   6.2145   6.5260   6.7988   6.8366
     6.9992   7.4930

          k = 1.5243 0.0000-0.2971 ( 36508 PWs)   bands (ev):

   -44.1642 -44.1642 -22.3074 -22.3074 -22.2403 -22.2403 -22.0807 -22.0807
    -7.0312  -7.0312  -6.6434  -6.6434  -5.8326  -5.8326  -4.8594  -4.8594
    -4.5347  -4.5347   0.6485   0.6485   1.0956   1.0956   1.2566   1.2566
     1.5590   1.5590   2.0599   2.0599   2.8677   2.8677   3.1520   3.1520
     3.2821   3.2821   3.3393   3.3393   3.6407   3.6407   3.8579   3.8579
     4.1374   4.1374   6.0942   6.0942   6.6154   6.6154   6.7694   6.7694
     7.0949   7.0949

          k =-0.2541-0.4514 0.0000 ( 36444 PWs)   bands (ev):

   -44.1651 -44.1651 -22.3121 -22.3121 -22.2158 -22.2158 -22.0839 -22.0838
    -7.4689  -7.0693  -6.7707  -6.6940  -6.6729  -5.2095  -5.1837  -4.9082
    -4.8163  -4.0044   0.6387   0.9811   1.0945   1.2654   1.4231   1.5398
     2.0431   2.1873   2.2846   2.2926   2.4303   3.1199   3.1898   3.2538
     3.5049   3.7227   3.7342   3.8045   3.9744   4.0054   4.0723   4.1836
     4.4403   4.5858   5.8136   6.0427   6.3966   6.4520   6.7317   6.9023
     6.9075   7.0046

          k =-0.2541-0.4514 0.1485 ( 36461 PWs)   bands (ev):

   -44.1651 -44.1651 -22.3121 -22.3121 -22.2158 -22.2158 -22.0838 -22.0838
    -7.4314  -7.1668  -6.7903  -6.7769  -6.4072  -5.6151  -4.9903  -4.8445
    -4.6850  -4.0917   0.6390   0.9623   1.1093   1.2460   1.2929   1.7039
     1.9051   2.2376   2.3027   2.4698   2.6666   2.9174   3.1750   3.1895
     3.3522   3.4921   3.8193   3.8268   3.9343   4.0030   4.0509   4.0912
     4.6955   5.0167   5.7650   5.8209   6.1898   6.2330   6.7478   6.7611
     7.1406   7.2467

          k =-0.2541-0.4514-0.2971 ( 36490 PWs)   bands (ev):

   -44.1651 -44.1651 -22.3121 -22.3121 -22.2158 -22.2158 -22.0838 -22.0838
    -7.3231  -7.3231  -6.7930  -6.7930  -6.0349  -6.0349  -4.9124  -4.9124
    -4.3369  -4.3369   0.7406   0.7406   1.2541   1.2541   1.3822   1.3822
     2.2136   2.2136   2.4421   2.4421   2.8141   2.8141   3.1605   3.1605
     3.2292   3.2292   3.7851   3.7851   3.9976   3.9976   4.0646   4.0646
     5.2121   5.2121   5.6412   5.6412   5.9703   5.9703   6.7536   6.7536
     7.3493   7.3494

          k = 0.0000-0.3869 0.0000 ( 36477 PWs)   bands (ev):

   -44.1655 -44.1655 -22.3141 -22.3141 -22.2057 -22.2057 -22.0852 -22.0851
    -7.5871  -7.1590  -6.8143  -6.7929  -6.7276  -5.2373  -5.2027  -4.9507
    -4.8561  -3.8701   0.5857   0.8429   0.9663   1.1369   1.6097   1.6930
     2.4249   2.5144   2.5977   2.8925   3.0242   3.0339   3.0926   3.2318
     3.3112   3.4591   3.8123   3.8912   3.9893   4.0059   4.0435   4.6292
     5.2576   5.3885   5.5740   5.6952   5.9475   6.2169   6.5251   6.6934
     6.9344   7.3001

          k = 0.0000-0.3869 0.1485 ( 36452 PWs)   bands (ev):

   -44.1655 -44.1655 -22.3141 -22.3141 -22.2057 -22.2057 -22.0852 -22.0851
    -7.5486  -7.2713  -6.8433  -6.8187  -6.4921  -5.6717  -5.0120  -4.8817
    -4.6853  -3.9806   0.5858   0.9557   1.0752   1.1104   1.1965   2.1415
     2.2045   2.4474   2.5696   2.8365   2.8672   3.0429   3.1512   3.2574
     3.6072   3.6326   3.6956   3.9107   3.9940   4.0034   4.0635   4.6533
     4.9895   5.0216   5.7330   5.9236   6.0862   6.1189   6.4867   6.7773
     6.9291   7.2057

          k = 0.0000-0.3869-0.2971 ( 36454 PWs)   bands (ev):

   -44.1655 -44.1655 -22.3141 -22.3141 -22.2057 -22.2057 -22.0851 -22.0851
    -7.4367  -7.4367  -6.8365  -6.8365  -6.1113  -6.1113  -4.9432  -4.9432
    -4.2787  -4.2787   0.7445   0.7445   1.0813   1.0813   1.5640   1.5640
     2.5056   2.5056   2.6676   2.6676   2.9715   2.9715   3.0763   3.0763
     3.7745   3.7745   3.8350   3.8350   3.9887   3.9887   4.4281   4.4281
     4.7535   4.7535   5.8567   5.8567   6.3477   6.3477   6.3937   6.3937
     7.1767   7.1768

          k =-2.0325 0.0000 0.0000 ( 36452 PWs)   bands (ev):

   -44.1655 -44.1655 -22.3141 -22.3141 -22.2057 -22.2057 -22.0852 -22.0851
    -7.5797  -7.1507  -6.8202  -6.7915  -6.7436  -5.2363  -5.2071  -4.9513
    -4.8546  -3.8708   0.5884   0.8495   1.0703   1.1500   1.6514   1.7014
     2.4294   2.4863   2.6059   2.7474   2.9437   3.0269   3.1241   3.2294
     3.3997   3.4481   3.7833   3.8441   3.9444   3.9733   4.0432   4.6314
     5.2514   5.3767   5.5811   5.7322   5.9607   6.2258   6.4753   6.7184
     6.9352   7.2042

          k =-2.0325 0.0000 0.1485 ( 36456 PWs)   bands (ev):

   -44.1655 -44.1655 -22.3141 -22.3141 -22.2057 -22.2057 -22.0852 -22.0851
    -7.5411  -7.2629  -6.8523  -6.8287  -6.4938  -5.6706  -5.0192  -4.8816
    -4.6824  -3.9805   0.5849   1.0022   1.0858   1.1544   1.2609   2.1530
     2.2096   2.4523   2.5772   2.7002   2.7735   3.0361   3.1460   3.3228
     3.5996   3.6113   3.7074   3.8792   3.9623   3.9924   4.0287   4.6555
     4.9886   5.0191   5.7501   5.9261   6.0672   6.1248   6.4724   6.7783
     6.9483   7.1890

          k =-2.0325 0.0000-0.2971 ( 36460 PWs)   bands (ev):

   -44.1655 -44.1655 -22.3141 -22.3141 -22.2057 -22.2057 -22.0851 -22.0851
    -7.4289  -7.4289  -6.8468  -6.8468  -6.1105  -6.1105  -4.9468  -4.9468
    -4.2772  -4.2772   0.7407   0.7407   1.1639   1.1639   1.5777   1.5777
     2.5117   2.5117   2.5827   2.5827   2.9579   2.9579   3.0700   3.0700
     3.7687   3.7687   3.8305   3.8305   3.9598   3.9598   4.4237   4.4237
     4.7550   4.7550   5.8399   5.8399   6.3529   6.3529   6.3951   6.3951
     7.1634   7.1635

     the Fermi energy is     5.2603 ev

!    total energy              =   -4240.92755150 Ry

     total all-electron energy =   -150287.621246 Ry
     estimated scf accuracy    <          1.5E-11 Ry
     smearing contrib. (-TS)   =      -0.00000575 Ry
     internal energy E=F+TS    =   -4240.92754576 Ry

     The total energy is F=E-TS. E is the sum of the following terms:
     one-electron contribution =    -164.26705291 Ry
     hartree contribution      =     115.58994415 Ry
     xc contribution           =    -201.39821933 Ry
     ewald contribution        =    -223.34433673 Ry
     one-center paw contrib.   =   -3767.50788094 Ry

     convergence has been achieved in  18 iterations

     Forces acting on atoms (cartesian axes, Ry/au):

     atom    1 type  1   force =     0.00000000   -0.02733325    0.00000000
     atom    2 type  1   force =     0.00000000    0.02733325    0.00000000
     atom    3 type  2   force =     0.00000000    0.00224990    0.00000000
     atom    4 type  2   force =     0.00000000   -0.00224990    0.00000000
     atom    5 type  2   force =     0.00000000    0.00603820   -0.00074809
     atom    6 type  2   force =     0.00000000   -0.00603820    0.00074809
     atom    7 type  2   force =     0.00000000    0.00603820    0.00074809
     atom    8 type  2   force =     0.00000000   -0.00603820   -0.00074809
     atom    9 type  2   force =     0.00000000    0.02004611    0.01295570
     atom   10 type  2   force =     0.00000000   -0.02004611   -0.01295570
     atom   11 type  2   force =     0.00000000    0.02004611   -0.01295570
     atom   12 type  2   force =    -0.00000000   -0.02004611    0.01295570

     Total force =     0.062699     Total SCF correction =     0.000005


     Computing stress (Cartesian axis) and pressure

          total   stress  (Ry/bohr**3)                   (kbar)     P=       -5.14
  -0.00001803   0.00000000   0.00000000           -2.65        0.00        0.00
   0.00000000  -0.00003379   0.00000000            0.00       -4.97        0.00
   0.00000000   0.00000000  -0.00005308            0.00        0.00       -7.81

 
     init_run     :     36.48s CPU     37.23s WALL (       1 calls)
     electrons    :   1859.19s CPU   1877.38s WALL (       1 calls)
     forces       :      7.03s CPU      7.26s WALL (       1 calls)
     stress       :     43.93s CPU     44.57s WALL (       1 calls)

     Called by init_run:
     wfcinit      :     31.65s CPU     31.94s WALL (       1 calls)
     potinit      :      1.49s CPU      1.57s WALL (       1 calls)
     hinit0       :      1.55s CPU      1.62s WALL (       1 calls)

     Called by electrons:
     c_bands      :   1545.55s CPU   1553.59s WALL (      19 calls)
     sum_band     :    280.25s CPU    286.19s WALL (      19 calls)
     v_of_rho     :      8.46s CPU      9.08s WALL (      19 calls)
     newd         :     17.86s CPU     21.69s WALL (      19 calls)
     PAW_pot      :      6.79s CPU      6.80s WALL (      19 calls)
     mix_rho      :      1.48s CPU      1.52s WALL (      19 calls)

     Called by c_bands:
     init_us_2    :     13.98s CPU     14.06s WALL (    2583 calls)
     cegterg      :   1464.90s CPU   1472.14s WALL (    1197 calls)

     Called by *egterg:
     cdiaghg      :     29.24s CPU     29.37s WALL (    8394 calls)
     h_psi        :   1272.48s CPU   1279.40s WALL (    8520 calls)
     s_psi        :     53.49s CPU     53.57s WALL (    8520 calls)
     g_psi        :      2.44s CPU      2.46s WALL (    7260 calls)

     Called by h_psi:
     h_psi:calbec :     46.18s CPU     46.28s WALL (    8520 calls)
     vloc_psi     :   1169.15s CPU   1175.79s WALL (    8520 calls)
     add_vuspsi   :     52.87s CPU     52.97s WALL (    8520 calls)

     General routines
     calbec       :     60.24s CPU     60.38s WALL (   10032 calls)
     fft          :      7.40s CPU      7.65s WALL (     271 calls)
     ffts         :      0.18s CPU      0.18s WALL (      38 calls)
     fftw         :   1153.53s CPU   1160.04s WALL (  451586 calls)
     interpolate  :      0.58s CPU      0.59s WALL (      19 calls)
 
     Parallel routines
     fft_scatt_xy :    269.95s CPU    271.63s WALL (  451895 calls)
     fft_scatt_yz :    332.35s CPU    334.43s WALL (  451895 calls)
 
     PWSCF        :  32m26.82s CPU  32m47.26s WALL

 
   This run was terminated on:  15:33:39  19Nov2021            

=------------------------------------------------------------------------------=
   JOB DONE.
=------------------------------------------------------------------------------=
