
     Program PWSCF v.6.7MaX starts on 19Nov2021 at 14:46:21 

     This program is part of the open-source Quantum ESPRESSO suite
     for quantum simulation of materials; please cite
         "P. Giannozzi et al., J. Phys.:Condens. Matter 21 395502 (2009);
         "P. Giannozzi et al., J. Phys.:Condens. Matter 29 465901 (2017);
          URL http://www.quantum-espresso.org", 
     in publications or presentations arising from this work. More details at
     http://www.quantum-espresso.org/quote

     Parallel version (MPI), running on    10 processors

     MPI processes distributed on     1 nodes
     R & G space division:  proc/nbgrp/npool/nimage =      10
     Waiting for input...
     Reading input from standard input

     Current dimensions of program PWSCF are:
     Max number of different atomic species (ntypx) = 10
     Max number of k-points (npk) =  40000
     Max angular momentum in pseudopotentials (lmaxx) =  3
     file Zr.pbe-spn-kjpaw_psl.1.0.0.UPF: wavefunction(s)  4S 4P renormalized
     file Te.pbe-n-kjpaw_psl.1.0.0.UPF: wavefunction(s)  5S 5P renormalized

     Subspace diagonalization in iterative solution of the eigenvalue problem:
     a serial algorithm will be used

     Message from routine setup:
     using ibrav=0 with symmetry is DISCOURAGED, use correct ibrav instead
 
     Parallelization info
     --------------------
     sticks:   dense  smooth     PW     G-vecs:    dense   smooth      PW
     Min         734     293     87               115340    29174    4753
     Max         735     295     88               115345    29176    4760
     Sum        7345    2937    873              1153415   291749   47557
 


     bravais-lattice index     =            0
     lattice parameter (alat)  =      15.5510  a.u.
     unit-cell volume          =    3018.5011 (a.u.)^3
     number of atoms/cell      =           12
     number of atomic types    =            2
     number of electrons       =        84.00
     number of Kohn-Sham states=           50
     kinetic-energy cutoff     =      80.0000  Ry
     charge density cutoff     =     800.0000  Ry
     scf convergence threshold =      1.0E-10
     mixing beta               =       0.7000
     number of iterations used =            8  plain     mixing
     Exchange-correlation= SLA  PW   PBX  PBC
                           (   1   4   3   4   0   0   0)

     celldm(1)=  15.551040  celldm(2)=   0.000000  celldm(3)=   0.000000
     celldm(4)=   0.000000  celldm(5)=   0.000000  celldm(6)=   0.000000

     crystal axes: (cart. coord. in units of alat)
               a(1) = (   0.246007  -0.969268   0.000000 )  
               a(2) = (   0.246007   0.969268   0.000000 )  
               a(3) = (   0.000000   0.000000   1.683031 )  

     reciprocal axes: (cart. coord. in units 2 pi/alat)
               b(1) = (  2.032465 -0.515853  0.000000 )  
               b(2) = (  2.032465  0.515853  0.000000 )  
               b(3) = (  0.000000  0.000000  0.594166 )  


     PseudoPot. # 1 for Zr read from file:
     pseudo/Zr.pbe-spn-kjpaw_psl.1.0.0.UPF
     MD5 check sum: 02112c41713a0468aff2bb39ef194e36
     Pseudo is Projector augmented-wave + core cor, Zval = 12.0
     Generated using &quot;atomic&quot; code by A. Dal Corso  v.6.2.2
     Shape of augmentation charge: PSQ
     Using radial grid of 1225 points,  6 beta functions with: 
                l(1) =   0
                l(2) =   0
                l(3) =   1
                l(4) =   1
                l(5) =   2
                l(6) =   2
     Q(r) pseudized with 0 coefficients 


     PseudoPot. # 2 for Te read from file:
     pseudo/Te.pbe-n-kjpaw_psl.1.0.0.UPF
     MD5 check sum: 66247bff2bd9dbf220fbb0bf5ab56e9d
     Pseudo is Projector augmented-wave + core cor, Zval =  6.0
     Generated using &quot;atomic&quot; code by A. Dal Corso  v.6.3
     Shape of augmentation charge: PSQ
     Using radial grid of 1245 points,  6 beta functions with: 
                l(1) =   0
                l(2) =   0
                l(3) =   1
                l(4) =   1
                l(5) =   2
                l(6) =   2
     Q(r) pseudized with 0 coefficients 


     atomic species   valence    mass     pseudopotential
        Zr            12.00    91.22000     Zr( 1.00)
        Te             6.00   127.60000     Te( 1.00)

      8 Sym. Ops., with inversion, found ( 4 have fractional translation)



   Cartesian axes

     site n.     atom                  positions (alat units)
         1           Zr  tau(   1) = (   0.0000000   0.6060623   0.4207578  )
         2           Zr  tau(   2) = (   0.2460067   0.3632058   1.2622733  )
         3           Te  tau(   3) = (   0.2460067   0.3342575   0.4207578  )
         4           Te  tau(   4) = (   0.0000000   0.6350106   1.2622733  )
         5           Te  tau(   5) = (   0.2460067   0.8096187   0.2519220  )
         6           Te  tau(   6) = (   0.0000000   0.1596494   1.4311090  )
         7           Te  tau(   7) = (   0.2460067   0.8096187   0.5895935  )
         8           Te  tau(   8) = (   0.0000000   0.1596494   1.0934376  )
         9           Te  tau(   9) = (   0.0000000   0.4140950   0.7301221  )
        10           Te  tau(  10) = (   0.2460067   0.5551731   0.9529089  )
        11           Te  tau(  11) = (   0.0000000   0.4140950   0.1113934  )
        12           Te  tau(  12) = (   0.2460067   0.5551731   1.5716377  )

     number of k points=    63  Methfessel-Paxton smearing, width (Ry)=  0.0030
                       cart. coord. in units 2pi/alat
        k(    1) = (   0.0000000   0.0000000   0.0000000), wk =   0.0078125
        k(    2) = (   0.0000000   0.0000000   0.1485415), wk =   0.0156250
        k(    3) = (   0.0000000   0.0000000  -0.2970830), wk =   0.0078125
        k(    4) = (   0.2540581   0.0644816   0.0000000), wk =   0.0312500
        k(    5) = (   0.2540581   0.0644816   0.1485415), wk =   0.0625000
        k(    6) = (   0.2540581   0.0644816  -0.2970830), wk =   0.0312500
        k(    7) = (   0.5081162   0.1289633   0.0000000), wk =   0.0312500
        k(    8) = (   0.5081162   0.1289633   0.1485415), wk =   0.0625000
        k(    9) = (   0.5081162   0.1289633  -0.2970830), wk =   0.0312500
        k(   10) = (   0.7621743   0.1934449   0.0000000), wk =   0.0312500
        k(   11) = (   0.7621743   0.1934449   0.1485415), wk =   0.0625000
        k(   12) = (   0.7621743   0.1934449  -0.2970830), wk =   0.0312500
        k(   13) = (  -1.0162324  -0.2579266   0.0000000), wk =   0.0156250
        k(   14) = (  -1.0162324  -0.2579266   0.1485415), wk =   0.0312500
        k(   15) = (  -1.0162324  -0.2579266  -0.2970830), wk =   0.0156250
        k(   16) = (   0.5081162   0.0000000   0.0000000), wk =   0.0156250
        k(   17) = (   0.5081162   0.0000000   0.1485415), wk =   0.0312500
        k(   18) = (   0.5081162   0.0000000  -0.2970830), wk =   0.0156250
        k(   19) = (   0.7621743   0.0644816   0.0000000), wk =   0.0312500
        k(   20) = (   0.7621743   0.0644816   0.1485415), wk =   0.0625000
        k(   21) = (   0.7621743   0.0644816  -0.2970830), wk =   0.0312500
        k(   22) = (   1.0162324   0.1289633   0.0000000), wk =   0.0312500
        k(   23) = (   1.0162324   0.1289633   0.1485415), wk =   0.0625000
        k(   24) = (   1.0162324   0.1289633  -0.2970830), wk =   0.0312500
        k(   25) = (  -0.7621743  -0.3224082   0.0000000), wk =   0.0312500
        k(   26) = (  -0.7621743  -0.3224082   0.1485415), wk =   0.0625000
        k(   27) = (  -0.7621743  -0.3224082  -0.2970830), wk =   0.0312500
        k(   28) = (  -0.5081162  -0.2579266   0.0000000), wk =   0.0312500
        k(   29) = (  -0.5081162  -0.2579266   0.1485415), wk =   0.0625000
        k(   30) = (  -0.5081162  -0.2579266  -0.2970830), wk =   0.0312500
        k(   31) = (  -0.2540581  -0.1934449   0.0000000), wk =   0.0312500
        k(   32) = (  -0.2540581  -0.1934449   0.1485415), wk =   0.0625000
        k(   33) = (  -0.2540581  -0.1934449  -0.2970830), wk =   0.0312500
        k(   34) = (   0.0000000  -0.1289633   0.0000000), wk =   0.0156250
        k(   35) = (   0.0000000  -0.1289633   0.1485415), wk =   0.0312500
        k(   36) = (   0.0000000  -0.1289633  -0.2970830), wk =   0.0156250
        k(   37) = (   1.0162324   0.0000000   0.0000000), wk =   0.0156250
        k(   38) = (   1.0162324   0.0000000   0.1485415), wk =   0.0312500
        k(   39) = (   1.0162324   0.0000000  -0.2970830), wk =   0.0156250
        k(   40) = (   1.2702905   0.0644816   0.0000000), wk =   0.0312500
        k(   41) = (   1.2702905   0.0644816   0.1485415), wk =   0.0625000
        k(   42) = (   1.2702905   0.0644816  -0.2970830), wk =   0.0312500
        k(   43) = (  -0.5081162  -0.3868899   0.0000000), wk =   0.0312500
        k(   44) = (  -0.5081162  -0.3868899   0.1485415), wk =   0.0625000
        k(   45) = (  -0.5081162  -0.3868899  -0.2970830), wk =   0.0312500
        k(   46) = (  -0.2540581  -0.3224082   0.0000000), wk =   0.0312500
        k(   47) = (  -0.2540581  -0.3224082   0.1485415), wk =   0.0625000
        k(   48) = (  -0.2540581  -0.3224082  -0.2970830), wk =   0.0312500
        k(   49) = (   0.0000000  -0.2579266   0.0000000), wk =   0.0156250
        k(   50) = (   0.0000000  -0.2579266   0.1485415), wk =   0.0312500
        k(   51) = (   0.0000000  -0.2579266  -0.2970830), wk =   0.0156250
        k(   52) = (   1.5243485   0.0000000   0.0000000), wk =   0.0156250
        k(   53) = (   1.5243485   0.0000000   0.1485415), wk =   0.0312500
        k(   54) = (   1.5243485   0.0000000  -0.2970830), wk =   0.0156250
        k(   55) = (  -0.2540581  -0.4513715   0.0000000), wk =   0.0312500
        k(   56) = (  -0.2540581  -0.4513715   0.1485415), wk =   0.0625000
        k(   57) = (  -0.2540581  -0.4513715  -0.2970830), wk =   0.0312500
        k(   58) = (   0.0000000  -0.3868899   0.0000000), wk =   0.0156250
        k(   59) = (   0.0000000  -0.3868899   0.1485415), wk =   0.0312500
        k(   60) = (   0.0000000  -0.3868899  -0.2970830), wk =   0.0156250
        k(   61) = (  -2.0324647   0.0000000   0.0000000), wk =   0.0078125
        k(   62) = (  -2.0324647   0.0000000   0.1485415), wk =   0.0156250
        k(   63) = (  -2.0324647   0.0000000  -0.2970830), wk =   0.0078125

     Dense  grid:  1153415 G-vectors     FFT dimensions: ( 144, 144, 240)

     Smooth grid:   291749 G-vectors     FFT dimensions: (  90,  90, 150)

     Estimated max dynamical RAM per process >     657.19 MB

     Estimated total dynamical RAM >       6.42 GB

     Initial potential from superposition of free atoms

     starting charge   83.99353, renormalised to   84.00000
     Starting wfcs are   66 randomized atomic wfcs
     Checking if some PAW data can be deallocated... 

     total cpu time spent up to now is       43.2 secs

     Self-consistent Calculation

     iteration #  1     ecut=    80.00 Ry     beta= 0.70
     Davidson diagonalization with overlap
     ethr =  1.00E-02,  avg # of iterations =  2.0

     Threshold (ethr) on eigenvalues was too large:
     Diagonalizing with lowered threshold

     Davidson diagonalization with overlap
     ethr =  4.12E-04,  avg # of iterations =  4.0

     total cpu time spent up to now is      203.4 secs

     total energy              =   -4240.73196111 Ry
     estimated scf accuracy    <       0.43356794 Ry

     iteration #  2     ecut=    80.00 Ry     beta= 0.70
     Davidson diagonalization with overlap
     ethr =  5.16E-04,  avg # of iterations =  7.5

     total cpu time spent up to now is      313.4 secs

     total energy              =   -4240.63921015 Ry
     estimated scf accuracy    <       2.05961716 Ry

     iteration #  3     ecut=    80.00 Ry     beta= 0.70
     Davidson diagonalization with overlap
     ethr =  5.16E-04,  avg # of iterations =  5.3

     total cpu time spent up to now is      407.0 secs

     total energy              =   -4240.93776133 Ry
     estimated scf accuracy    <       0.01071211 Ry

     iteration #  4     ecut=    80.00 Ry     beta= 0.70
     Davidson diagonalization with overlap
     c_bands:  1 eigenvalues not converged
     c_bands:  1 eigenvalues not converged
     c_bands:  2 eigenvalues not converged
     c_bands:  1 eigenvalues not converged
     c_bands:  1 eigenvalues not converged
     c_bands:  2 eigenvalues not converged
     c_bands:  2 eigenvalues not converged
     c_bands:  2 eigenvalues not converged
     c_bands:  1 eigenvalues not converged
     c_bands:  1 eigenvalues not converged
     c_bands:  1 eigenvalues not converged
     c_bands:  1 eigenvalues not converged
     c_bands:  1 eigenvalues not converged
     c_bands:  2 eigenvalues not converged
     c_bands:  1 eigenvalues not converged
     c_bands:  2 eigenvalues not converged
     c_bands:  1 eigenvalues not converged
     c_bands:  2 eigenvalues not converged
     c_bands:  1 eigenvalues not converged
     c_bands:  1 eigenvalues not converged
     ethr =  1.28E-05,  avg # of iterations = 17.4

     total cpu time spent up to now is      583.4 secs

     total energy              =   -4240.95017878 Ry
     estimated scf accuracy    <       0.06502419 Ry

     iteration #  5     ecut=    80.00 Ry     beta= 0.70
     Davidson diagonalization with overlap
     ethr =  1.28E-05,  avg # of iterations =  7.4

     total cpu time spent up to now is      674.8 secs

     total energy              =   -4240.95211089 Ry
     estimated scf accuracy    <       0.01239087 Ry

     iteration #  6     ecut=    80.00 Ry     beta= 0.70
     Davidson diagonalization with overlap
     ethr =  1.28E-05,  avg # of iterations =  3.2

     total cpu time spent up to now is      750.1 secs

     total energy              =   -4240.95304293 Ry
     estimated scf accuracy    <       0.00146352 Ry

     iteration #  7     ecut=    80.00 Ry     beta= 0.70
     Davidson diagonalization with overlap
     c_bands:  1 eigenvalues not converged
     c_bands:  1 eigenvalues not converged
     c_bands:  1 eigenvalues not converged
     ethr =  1.74E-06,  avg # of iterations = 12.4

     total cpu time spent up to now is      876.8 secs

     total energy              =   -4240.95381529 Ry
     estimated scf accuracy    <       0.00177858 Ry

     iteration #  8     ecut=    80.00 Ry     beta= 0.70
     Davidson diagonalization with overlap
     c_bands:  1 eigenvalues not converged
     ethr =  1.74E-06,  avg # of iterations =  2.6

     total cpu time spent up to now is      946.5 secs

     total energy              =   -4240.95385123 Ry
     estimated scf accuracy    <       0.00028912 Ry

     iteration #  9     ecut=    80.00 Ry     beta= 0.70
     Davidson diagonalization with overlap
     ethr =  3.44E-07,  avg # of iterations =  6.3

     total cpu time spent up to now is     1034.7 secs

     total energy              =   -4240.95393721 Ry
     estimated scf accuracy    <       0.00001920 Ry

     iteration # 10     ecut=    80.00 Ry     beta= 0.70
     Davidson diagonalization with overlap
     ethr =  2.29E-08,  avg # of iterations =  5.3

     total cpu time spent up to now is     1121.1 secs

     total energy              =   -4240.95394202 Ry
     estimated scf accuracy    <       0.00000816 Ry

     iteration # 11     ecut=    80.00 Ry     beta= 0.70
     Davidson diagonalization with overlap
     ethr =  9.71E-09,  avg # of iterations =  5.4

     total cpu time spent up to now is     1203.9 secs

     total energy              =   -4240.95394421 Ry
     estimated scf accuracy    <       0.00000033 Ry

     iteration # 12     ecut=    80.00 Ry     beta= 0.70
     Davidson diagonalization with overlap
     ethr =  3.92E-10,  avg # of iterations =  6.0

     total cpu time spent up to now is     1297.9 secs

     total energy              =   -4240.95394438 Ry
     estimated scf accuracy    <          6.9E-09 Ry

     iteration # 13     ecut=    80.00 Ry     beta= 0.70
     Davidson diagonalization with overlap
     ethr =  8.18E-12,  avg # of iterations =  8.4

     total cpu time spent up to now is     1419.4 secs

     total energy              =   -4240.95394439 Ry
     estimated scf accuracy    <          5.9E-09 Ry

     iteration # 14     ecut=    80.00 Ry     beta= 0.70
     Davidson diagonalization with overlap
     ethr =  7.01E-12,  avg # of iterations =  2.1

     total cpu time spent up to now is     1488.3 secs

     total energy              =   -4240.95394439 Ry
     estimated scf accuracy    <          8.9E-10 Ry

     iteration # 15     ecut=    80.00 Ry     beta= 0.70
     Davidson diagonalization with overlap
     ethr =  1.06E-12,  avg # of iterations =  6.1

     total cpu time spent up to now is     1582.6 secs

     total energy              =   -4240.95394439 Ry
     estimated scf accuracy    <          2.1E-10 Ry

     iteration # 16     ecut=    80.00 Ry     beta= 0.70
     Davidson diagonalization with overlap
     ethr =  2.52E-13,  avg # of iterations =  1.8

     total cpu time spent up to now is     1649.9 secs

     End of self-consistent calculation

          k = 0.0000 0.0000 0.0000 ( 36359 PWs)   bands (ev):

   -44.1338 -44.1338 -22.2610 -22.2610 -22.1673 -22.1672 -22.0636 -22.0634
    -7.8418  -7.4581  -7.1310  -6.8556  -6.3263  -5.4066  -4.9448  -4.8435
    -4.7922  -3.8381   0.3492   0.7488   0.7644   1.1161   1.4634   1.5286
     2.2860   2.3443   2.6027   2.7317   2.9506   3.0113   3.2397   3.4183
     3.6872   3.7830   3.9624   4.0670   4.2383   4.3366   4.3523   4.6713
     4.8658   5.4991   5.6343   5.8163   5.8403   5.9525   6.1746   6.8310
     6.9813   7.2717

          k = 0.0000 0.0000 0.1485 ( 36415 PWs)   bands (ev):

   -44.1338 -44.1338 -22.2610 -22.2610 -22.1673 -22.1672 -22.0635 -22.0635
    -7.8065  -7.5586  -7.0409  -6.8727  -6.2477  -5.6695  -4.8449  -4.8010
    -4.6528  -3.9540   0.4136   0.7998   0.9010   1.0124   1.0756   1.9206
     2.0653   2.3138   2.5106   2.8091   2.9363   3.1189   3.3875   3.4002
     3.6999   3.8479   3.9448   4.0684   4.1770   4.3561   4.3704   4.6742
     4.7827   4.9950   5.8023   5.9541   5.9591   6.0160   6.5252   6.6328
     6.8038   7.2005

          k = 0.0000 0.0000-0.2971 ( 36410 PWs)   bands (ev):

   -44.1338 -44.1338 -22.2610 -22.2610 -22.1673 -22.1673 -22.0635 -22.0635
    -7.7053  -7.7053  -6.9308  -6.9308  -6.0133  -6.0133  -4.8222  -4.8222
    -4.2580  -4.2580   0.6273   0.6273   0.9210   0.9210   1.3634   1.3634
     2.3935   2.3935   2.6445   2.6445   2.8908   2.8908   3.4909   3.4909
     3.8886   3.8886   4.0122   4.0122   4.3479   4.3479   4.3905   4.3905
     4.6982   4.6982   5.9381   5.9381   6.2231   6.2231   6.4176   6.4176
     7.0019   7.0019

          k = 0.2541 0.0645 0.0000 ( 36396 PWs)   bands (ev):

   -44.1335 -44.1335 -22.2591 -22.2591 -22.1770 -22.1770 -22.0624 -22.0623
    -7.7241  -7.3459  -7.0595  -6.8080  -6.2646  -5.3620  -4.9592  -4.8007
    -4.7485  -3.9900   0.4353   0.8758   0.8938   1.2332   1.2857   1.4020
     1.8094   1.8586   2.0331   2.5647   2.5904   3.1513   3.3213   3.7206
     3.7476   3.7558   3.8004   3.8211   4.0237   4.2474   4.2857   4.2906
     4.4895   4.5845   5.8096   5.9790   6.2232   6.5806   6.5962   6.7642
     7.0106   7.1729

          k = 0.2541 0.0645 0.1485 ( 36423 PWs)   bands (ev):

   -44.1335 -44.1335 -22.2591 -22.2591 -22.1770 -22.1770 -22.0624 -22.0623
    -7.6895  -7.4462  -6.9747  -6.8235  -6.1837  -5.6158  -4.8199  -4.7592
    -4.6711  -4.0824   0.4876   0.9272   0.9434   0.9627   1.1829   1.4505
     1.7831   2.1171   2.2595   2.5473   2.5744   2.9484   3.3328   3.3480
     3.5700   3.7651   3.9283   3.9414   4.0276   4.1486   4.3180   4.3378
     4.6822   4.8686   5.8392   5.9222   6.1745   6.2642   6.4215   6.7352
     7.2261   7.3005

          k = 0.2541 0.0645-0.2971 ( 36436 PWs)   bands (ev):

   -44.1335 -44.1335 -22.2591 -22.2591 -22.1770 -22.1770 -22.0623 -22.0623
    -7.5903  -7.5903  -6.8754  -6.8754  -5.9495  -5.9495  -4.7855  -4.7855
    -4.3340  -4.3340   0.6595   0.6595   1.0249   1.0249   1.1791   1.1791
     2.1458   2.1458   2.4749   2.4749   2.6719   2.6719   3.1824   3.1824
     3.6291   3.6291   3.9354   3.9354   4.1040   4.1040   4.3443   4.3443
     5.0414   5.0414   5.7764   5.7764   6.1387   6.1387   6.4465   6.4465
     7.4108   7.4108

          k = 0.5081 0.1290 0.0000 ( 36499 PWs)   bands (ev):

   -44.1326 -44.1326 -22.2544 -22.2543 -22.2005 -22.2005 -22.0596 -22.0595
    -7.3872  -7.0198  -6.8906  -6.6830  -6.0748  -5.2621  -5.0640  -4.6892
    -4.6406  -4.4436   0.4304   0.5981   0.6442   1.2083   1.2291   1.4346
     1.6630   1.6943   1.9786   2.1046   2.1671   2.2467   2.4179   3.3713
     3.4533   3.5070   3.5265   3.5911   3.7720   3.8786   3.9229   4.1766
     4.4295   5.0768   5.5697   6.0457   6.0861   6.5861   6.6037   6.9430
     7.4448   7.5648

          k = 0.5081 0.1290 0.1485 ( 36476 PWs)   bands (ev):

   -44.1326 -44.1326 -22.2544 -22.2543 -22.2005 -22.2005 -22.0596 -22.0595
    -7.3551  -7.1277  -6.8091  -6.6949  -5.9928  -5.4859  -4.8926  -4.6702
    -4.6521  -4.4720   0.4260   0.6433   0.7610   1.0109   1.2556   1.3782
     1.4423   1.5639   2.0203   2.0956   2.3449   2.4633   2.8026   3.3937
     3.4215   3.4570   3.5238   3.5859   3.7056   3.7498   3.8488   4.2304
     4.3213   4.5106   6.1334   6.1738   6.3125   6.5879   6.6465   6.8082
     7.2829   7.5073

          k = 0.5081 0.1290-0.2971 ( 36466 PWs)   bands (ev):

   -44.1326 -44.1326 -22.2543 -22.2543 -22.2005 -22.2005 -22.0595 -22.0595
    -7.2631  -7.2631  -6.7337  -6.7337  -5.7742  -5.7742  -4.7473  -4.7473
    -4.5568  -4.5568   0.5259   0.5259   1.0324   1.0324   1.1069   1.1069
     1.4157   1.4157   2.0585   2.0585   2.7108   2.7108   3.1586   3.1586
     3.3993   3.3993   3.5536   3.5536   3.7109   3.7109   3.8327   3.8327
     4.3114   4.3114   6.3754   6.3754   6.5587   6.5587   6.8287   6.8287
     7.1372   7.1372

          k = 0.7622 0.1934 0.0000 ( 36521 PWs)   bands (ev):

   -44.1317 -44.1317 -22.2496 -22.2495 -22.2239 -22.2239 -22.0567 -22.0567
    -6.9277  -6.7362  -6.5168  -6.4763  -5.7888  -5.3836  -5.2180  -5.1059
    -4.5651  -4.5289   0.0148   0.0501   0.5175   1.0176   1.0422   1.2682
     1.4822   1.6034   1.9647   2.0711   2.2485   2.3669   2.4157   2.7878
     2.8838   3.2656   3.3374   3.4438   3.6004   3.6815   3.7073   3.7982
     3.8508   4.5633   5.8984   6.3152   6.3746   6.8362   6.8446   6.9360
     7.3011   7.6157

          k = 0.7622 0.1934 0.1485 ( 36503 PWs)   bands (ev):

   -44.1317 -44.1317 -22.2496 -22.2495 -22.2239 -22.2239 -22.0567 -22.0567
    -6.9051  -6.7719  -6.5102  -6.4819  -5.7284  -5.4478  -5.1960  -5.1202
    -4.5564  -4.5314   0.0222   0.2163   0.3909   0.9099   1.0159   1.2288
     1.4951   1.6274   1.8902   2.0619   2.1307   2.6236   2.6904   2.8443
     2.8870   3.0895   3.2715   3.3907   3.5271   3.6227   3.6544   3.9320
     3.9742   4.5389   5.6637   6.3424   6.6463   6.7395   6.9061   6.9753
     7.0781   7.5762

          k = 0.7622 0.1934-0.2971 ( 36522 PWs)   bands (ev):

   -44.1317 -44.1317 -22.2495 -22.2495 -22.2239 -22.2239 -22.0567 -22.0567
    -6.8446  -6.8446  -6.4957  -6.4957  -5.5887  -5.5887  -5.1557  -5.1557
    -4.5409  -4.5409   0.1638   0.1638   0.5587   0.5587   1.0825   1.0825
     1.5678   1.5678   2.0135   2.0135   2.3769   2.3769   2.8175   2.8175
     2.9899   2.9899   3.3268   3.3268   3.5943   3.5943   3.8786   3.8786
     4.0963   4.0963   6.1382   6.1382   6.4454   6.4454   6.9730   6.9730
     7.4239   7.4239

          k =-1.0162-0.2579 0.0000 ( 36506 PWs)   bands (ev):

   -44.1313 -44.1313 -22.2474 -22.2474 -22.2337 -22.2337 -22.0555 -22.0555
    -6.7117  -6.6916  -5.9800  -5.9689  -5.9245  -5.9170  -5.3447  -5.3440
    -4.5080  -4.4829  -0.0129   0.0099   0.3102   0.3316   1.0123   1.0215
     1.4685   1.6702   2.2338   2.3904   2.3991   2.4106   2.8002   2.8047
     2.8145   2.8460   3.2158   3.2606   3.3185   3.4176   3.5033   3.7165
     3.7730   4.0721   6.5422   6.5648   6.5654   6.6430   7.0212   7.1180
     7.1247   7.1455

          k =-1.0162-0.2579 0.1485 ( 36506 PWs)   bands (ev):

   -44.1313 -44.1313 -22.2474 -22.2474 -22.2337 -22.2337 -22.0555 -22.0555
    -6.7079  -6.6936  -6.0007  -5.9926  -5.9024  -5.8973  -5.3413  -5.3409
    -4.5078  -4.4900  -0.1102  -0.1031   0.5308   0.5378   1.0110   1.0285
     1.4645   1.5948   1.9857   2.0849   2.3751   2.3980   2.7046   2.7060
     2.9404   3.0283   3.1062   3.1942   3.5552   3.5729   3.6579   3.7548
     4.0287   4.1394   6.0152   6.0313   6.4835   6.5592   7.0961   7.1204
     7.3227   7.3708

          k =-1.0162-0.2579-0.2971 ( 36528 PWs)   bands (ev):

   -44.1313 -44.1313 -22.2474 -22.2474 -22.2337 -22.2337 -22.0555 -22.0555
    -6.6998  -6.6998  -6.0119  -6.0119  -5.8860  -5.8860  -5.3378  -5.3378
    -4.5024  -4.5024  -0.1700  -0.1700   0.7911   0.7911   0.9508   0.9508
     1.5297   1.5297   1.7486   1.7486   2.3749   2.3749   2.7702   2.7702
     2.9046   2.9046   3.1643   3.1643   3.6325   3.6325   3.8038   3.8038
     4.3820   4.3820   5.5640   5.5640   6.4372   6.4372   7.1307   7.1307
     7.4254   7.4254

          k = 0.5081 0.0000 0.0000 ( 36503 PWs)   bands (ev):

   -44.1326 -44.1326 -22.2544 -22.2543 -22.2005 -22.2005 -22.0596 -22.0595
    -7.3913  -7.0205  -6.8917  -6.6787  -6.0712  -5.2623  -5.0611  -4.6837
    -4.6473  -4.4431   0.4360   0.6077   0.6291   1.2035   1.2111   1.4101
     1.6641   1.6917   1.9647   2.1143   2.1703   2.2203   2.4167   3.3608
     3.4785   3.4892   3.5710   3.5863   3.7786   3.9079   3.9323   4.2138
     4.4315   5.0731   5.5755   6.0234   6.1221   6.5475   6.5523   6.9787
     7.4607   7.5791

          k = 0.5081 0.0000 0.1485 ( 36453 PWs)   bands (ev):

   -44.1326 -44.1326 -22.2543 -22.2543 -22.2005 -22.2005 -22.0596 -22.0595
    -7.3591  -7.1303  -6.8075  -6.6906  -5.9903  -5.4858  -4.8880  -4.6719
    -4.6518  -4.4731   0.4280   0.6383   0.7620   1.0136   1.2454   1.3839
     1.4048   1.5445   2.0174   2.1047   2.3682   2.4170   2.7986   3.3855
     3.4556   3.4746   3.4957   3.5950   3.6990   3.8209   3.8373   4.2702
     4.3332   4.5039   6.1275   6.1835   6.3303   6.5395   6.6097   6.8401
     7.3038   7.5157

          k = 0.5081 0.0000-0.2971 ( 36452 PWs)   bands (ev):

   -44.1326 -44.1326 -22.2543 -22.2543 -22.2005 -22.2005 -22.0595 -22.0595
    -7.2666  -7.2666  -6.7300  -6.7300  -5.7733  -5.7733  -4.7433  -4.7433
    -4.5596  -4.5596   0.5232   0.5232   1.0331   1.0331   1.1173   1.1173
     1.3772   1.3772   2.0607   2.0607   2.7018   2.7018   3.1479   3.1479
     3.4011   3.4011   3.5719   3.5719   3.7382   3.7382   3.8322   3.8322
     4.3322   4.3322   6.3912   6.3912   6.5226   6.5226   6.8459   6.8459
     7.1383   7.1383

          k = 0.7622 0.0645 0.0000 ( 36505 PWs)   bands (ev):

   -44.1317 -44.1317 -22.2496 -22.2495 -22.2239 -22.2239 -22.0567 -22.0567
    -6.9363  -6.7339  -6.5183  -6.4685  -5.7887  -5.3804  -5.2187  -5.1052
    -4.5559  -4.5391   0.0106   0.0603   0.5334   1.0305   1.0493   1.2823
     1.4447   1.5650   1.9357   2.0894   2.2598   2.3479   2.3555   2.7623
     2.8721   3.3150   3.3583   3.4770   3.6100   3.6311   3.7088   3.8279
     3.8673   4.5975   5.8960   6.3108   6.3653   6.8162   6.8936   6.8945
     7.3174   7.6306

          k = 0.7622 0.0645 0.1485 ( 36509 PWs)   bands (ev):

   -44.1317 -44.1317 -22.2496 -22.2495 -22.2239 -22.2239 -22.0567 -22.0567
    -6.9131  -6.7733  -6.5076  -6.4742  -5.7288  -5.4468  -5.1950  -5.1193
    -4.5499  -4.5386   0.0269   0.2167   0.4002   0.9084   1.0348   1.2441
     1.4620   1.6270   1.9193   1.9930   2.0595   2.6397   2.6763   2.8312
     2.8688   3.0925   3.3267   3.3988   3.5368   3.6149   3.6559   3.9574
     3.9996   4.5359   5.6891   6.3217   6.6573   6.7395   6.9177   6.9762
     7.0522   7.5956

          k = 0.7622 0.0645-0.2971 ( 36472 PWs)   bands (ev):

   -44.1317 -44.1317 -22.2495 -22.2495 -22.2239 -22.2239 -22.0567 -22.0567
    -6.8504  -6.8504  -6.4891  -6.4891  -5.5893  -5.5893  -5.1543  -5.1543
    -4.5411  -4.5411   0.1711   0.1711   0.5519   0.5519   1.1053   1.1053
     1.5614   1.5614   1.9634   1.9634   2.3531   2.3531   2.8190   2.8190
     2.9763   2.9763   3.3862   3.3862   3.5915   3.5915   3.8650   3.8650
     4.1156   4.1156   6.1637   6.1637   6.4460   6.4460   6.9406   6.9406
     7.4513   7.4513

          k = 1.0162 0.1290 0.0000 ( 36514 PWs)   bands (ev):

   -44.1313 -44.1313 -22.2474 -22.2474 -22.2337 -22.2337 -22.0555 -22.0555
    -6.7117  -6.6916  -5.9797  -5.9691  -5.9245  -5.9169  -5.3447  -5.3440
    -4.5080  -4.4829  -0.0188   0.0158   0.3060   0.3359   1.0059   1.0290
     1.4744   1.6610   2.2331   2.3903   2.3922   2.4114   2.7941   2.8057
     2.8125   2.8717   3.2333   3.2440   3.3020   3.4061   3.5427   3.6962
     3.7587   4.0856   6.5316   6.5597   6.5765   6.6496   7.0394   7.1192
     7.1268   7.1329

          k = 1.0162 0.1290 0.1485 ( 36524 PWs)   bands (ev):

   -44.1313 -44.1313 -22.2474 -22.2474 -22.2337 -22.2337 -22.0555 -22.0555
    -6.7079  -6.6936  -6.0006  -5.9928  -5.9024  -5.8973  -5.3413  -5.3409
    -4.5078  -4.4900  -0.1124  -0.1013   0.5321   0.5372   1.0132   1.0267
     1.4698   1.5896   1.9978   2.0684   2.3743   2.3930   2.6632   2.7543
     2.9533   3.0397   3.0958   3.1858   3.5292   3.6091   3.6554   3.7452
     4.0090   4.1589   6.0076   6.0424   6.4803   6.5618   7.1017   7.1194
     7.3298   7.3643

          k = 1.0162 0.1290-0.2971 ( 36516 PWs)   bands (ev):

   -44.1313 -44.1313 -22.2474 -22.2474 -22.2337 -22.2337 -22.0555 -22.0555
    -6.6998  -6.6998  -6.0119  -6.0119  -5.8860  -5.8860  -5.3378  -5.3378
    -4.5024  -4.5024  -0.1701  -0.1701   0.7915   0.7915   0.9508   0.9508
     1.5307   1.5307   1.7494   1.7494   2.3659   2.3659   2.7543   2.7543
     2.9486   2.9486   3.1425   3.1425   3.6360   3.6360   3.8002   3.8002
     4.3825   4.3825   5.5664   5.5664   6.4366   6.4366   7.1323   7.1323
     7.4261   7.4261

          k =-0.7622-0.3224 0.0000 ( 36511 PWs)   bands (ev):

   -44.1317 -44.1317 -22.2496 -22.2495 -22.2239 -22.2239 -22.0567 -22.0567
    -6.9145  -6.7405  -6.5146  -6.4874  -5.7891  -5.3882  -5.2171  -5.1069
    -4.5725  -4.5203   0.0207   0.0360   0.4955   0.9858   1.0587   1.2507
     1.5040   1.6667   2.0242   2.0480   2.2692   2.3927   2.4468   2.8241
     2.8968   3.2059   3.3206   3.4452   3.5710   3.6586   3.6653   3.8096
     3.8695   4.5058   5.9019   6.3059   6.4142   6.7540   6.8882   7.0022
     7.2688   7.5972

          k =-0.7622-0.3224 0.1485 ( 36492 PWs)   bands (ev):

   -44.1317 -44.1317 -22.2496 -22.2495 -22.2239 -22.2239 -22.0567 -22.0567
    -6.8929  -6.7704  -6.5140  -6.4930  -5.7279  -5.4491  -5.1975  -5.1215
    -4.5614  -4.5253   0.0149   0.2172   0.3772   0.9045   1.0058   1.2081
     1.5315   1.6309   1.8718   2.1650   2.2141   2.6082   2.6919   2.8633
     2.9045   3.1073   3.2062   3.3752   3.4760   3.6062   3.6976   3.8819
     3.9493   4.5417   5.6299   6.3758   6.6195   6.7375   6.8767   7.0176
     7.1067   7.5387

          k =-0.7622-0.3224-0.2971 ( 36508 PWs)   bands (ev):

   -44.1317 -44.1317 -22.2495 -22.2495 -22.2239 -22.2239 -22.0567 -22.0567
    -6.8359  -6.8359  -6.5056  -6.5056  -5.5877  -5.5877  -5.1579  -5.1579
    -4.5405  -4.5405   0.1537   0.1537   0.5678   0.5678   1.0556   1.0556
     1.5761   1.5761   2.0698   2.0698   2.4297   2.4297   2.8164   2.8164
     3.0099   3.0099   3.2425   3.2425   3.5929   3.5929   3.8816   3.8816
     4.0808   4.0808   6.1051   6.1051   6.4431   6.4431   7.0266   7.0266
     7.3770   7.3770

          k =-0.5081-0.2579 0.0000 ( 36480 PWs)   bands (ev):

   -44.1326 -44.1326 -22.2544 -22.2543 -22.2005 -22.2005 -22.0596 -22.0595
    -7.3769  -7.0181  -6.8887  -6.6929  -6.0837  -5.2616  -5.0711  -4.6975
    -4.6295  -4.4447   0.4171   0.5947   0.6566   1.2194   1.2833   1.4946
     1.6585   1.7090   2.0139   2.0833   2.1670   2.2922   2.4182   3.3889
     3.3938   3.4567   3.5451   3.5667   3.7488   3.7824   3.9406   4.0998
     4.4206   5.0840   5.5581   5.9932   6.1082   6.6846   6.7249   6.8580
     7.3948   7.5329

          k =-0.5081-0.2579 0.1485 ( 36485 PWs)   bands (ev):

   -44.1326 -44.1326 -22.2544 -22.2543 -22.2005 -22.2005 -22.0596 -22.0595
    -7.3451  -7.1216  -6.8136  -6.7049  -5.9989  -5.4860  -4.9033  -4.6666
    -4.6528  -4.4694   0.4216   0.6544   0.7568   1.0045   1.2835   1.3814
     1.5182   1.6208   2.0196   2.0803   2.3282   2.5287   2.8121   3.3313
     3.4125   3.4518   3.5531   3.5589   3.6165   3.7293   3.8464   4.1504
     4.2823   4.5229   6.1196   6.1725   6.2766   6.6905   6.7367   6.7510
     7.2262   7.4898

          k =-0.5081-0.2579-0.2971 ( 36478 PWs)   bands (ev):

   -44.1326 -44.1326 -22.2543 -22.2543 -22.2005 -22.2005 -22.0595 -22.0595
    -7.2543  -7.2543  -6.7428  -6.7428  -5.7761  -5.7761  -4.7565  -4.7565
    -4.5504  -4.5504   0.5321   0.5321   1.0300   1.0300   1.0891   1.0891
     1.5106   1.5106   2.0494   2.0494   2.7370   2.7370   3.1747   3.1747
     3.3852   3.3852   3.4869   3.4869   3.6867   3.6867   3.8292   3.8292
     4.2615   4.2615   6.3388   6.3388   6.6351   6.6351   6.7918   6.7918
     7.1416   7.1416

          k =-0.2541-0.1934 0.0000 ( 36410 PWs)   bands (ev):

   -44.1335 -44.1335 -22.2591 -22.2591 -22.1770 -22.1770 -22.0624 -22.0623
    -7.7170  -7.3447  -7.0535  -6.8153  -6.2778  -5.3634  -4.9671  -4.8085
    -4.7368  -3.9909   0.4613   0.8831   0.9636   1.2614   1.2824   1.4359
     1.8329   1.8831   2.0344   2.5318   2.5799   3.2148   3.2880   3.6525
     3.6824   3.7284   3.7738   3.8660   3.8830   4.1980   4.2561   4.2789
     4.3912   4.6015   5.8643   6.0064   6.2871   6.5911   6.6319   6.7782
     6.9939   7.0921

          k =-0.2541-0.1934 0.1485 ( 36427 PWs)   bands (ev):

   -44.1335 -44.1335 -22.2591 -22.2591 -22.1770 -22.1770 -22.0624 -22.0623
    -7.6826  -7.4421  -6.9740  -6.8304  -6.1939  -5.6177  -4.8382  -4.7526
    -4.6647  -4.0824   0.5113   0.9380   0.9611   1.0345   1.2163   1.4653
     1.7894   2.1201   2.2872   2.5287   2.5593   2.9320   3.3539   3.3881
     3.5779   3.6608   3.7842   3.8984   3.9822   4.1257   4.2760   4.2881
     4.6750   4.8632   5.8270   5.9453   6.1664   6.3328   6.4908   6.7371
     7.1857   7.2898

          k =-0.2541-0.1934-0.2971 ( 36422 PWs)   bands (ev):

   -44.1335 -44.1335 -22.2591 -22.2591 -22.1770 -22.1770 -22.0623 -22.0623
    -7.5842  -7.5842  -6.8802  -6.8802  -5.9544  -5.9544  -4.7904  -4.7904
    -4.3317  -4.3317   0.6783   0.6783   1.0848   1.0848   1.1883   1.1883
     2.1476   2.1476   2.4689   2.4689   2.6706   2.6706   3.2016   3.2016
     3.6048   3.6048   3.8198   3.8198   4.0846   4.0846   4.2908   4.2908
     5.0510   5.0510   5.7387   5.7387   6.1495   6.1495   6.5215   6.5215
     7.3920   7.3920

          k = 0.0000-0.1290 0.0000 ( 36417 PWs)   bands (ev):

   -44.1338 -44.1338 -22.2610 -22.2610 -22.1673 -22.1672 -22.0636 -22.0634
    -7.8381  -7.4575  -7.1269  -6.8595  -6.3347  -5.4079  -4.9495  -4.8495
    -4.7839  -3.8387   0.3685   0.7533   0.8056   1.1251   1.4745   1.5564
     2.2870   2.3446   2.6017   2.7387   2.9509   3.0164   3.2777   3.4068
     3.6356   3.7720   3.8462   4.0133   4.2384   4.2819   4.3047   4.6710
     4.8550   5.4646   5.6577   5.8238   5.8599   6.0008   6.2235   6.8241
     6.9815   7.2389

          k = 0.0000-0.1290 0.1485 ( 36419 PWs)   bands (ev):

   -44.1338 -44.1338 -22.2610 -22.2610 -22.1673 -22.1672 -22.0635 -22.0635
    -7.8029  -7.5564  -7.0397  -6.8763  -6.2544  -5.6711  -4.8554  -4.7963
    -4.6499  -3.9541   0.4319   0.8417   0.9107   1.0166   1.0960   1.9265
     2.0823   2.3149   2.5116   2.8134   2.9372   3.1282   3.3653   3.4151
     3.6905   3.8370   3.8379   3.9920   4.1745   4.3033   4.3253   4.6737
     4.7762   4.9860   5.8140   5.9719   5.9997   6.0210   6.5470   6.6289
     6.8047   7.1830

          k = 0.0000-0.1290-0.2971 ( 36464 PWs)   bands (ev):

   -44.1338 -44.1338 -22.2610 -22.2610 -22.1673 -22.1673 -22.0635 -22.0635
    -7.7021  -7.7021  -6.9329  -6.9329  -6.0168  -6.0168  -4.8246  -4.8246
    -4.2571  -4.2571   0.6480   0.6480   0.9445   0.9445   1.3705   1.3705
     2.3947   2.3947   2.6556   2.6556   2.8931   2.8931   3.4774   3.4774
     3.8344   3.8344   4.0049   4.0049   4.2512   4.2512   4.4077   4.4077
     4.6963   4.6963   5.9503   5.9503   6.2400   6.2400   6.4201   6.4201
     6.9999   6.9999

          k = 1.0162 0.0000 0.0000 ( 36499 PWs)   bands (ev):

   -44.1313 -44.1313 -22.2474 -22.2474 -22.2337 -22.2337 -22.0555 -22.0555
    -6.7117  -6.6916  -5.9795  -5.9694  -5.9246  -5.9169  -5.3447  -5.3440
    -4.5080  -4.4829  -0.0230   0.0202   0.3028   0.3392   1.0024   1.0336
     1.4811   1.6510   2.2323   2.3862   2.3904   2.4121   2.7899   2.8049
     2.8130   2.8937   3.2548   3.2551   3.2598   3.3902   3.5967   3.6593
     3.7461   4.0980   6.5248   6.5552   6.5839   6.6557   7.0669   7.1112
     7.1204   7.1289

          k = 1.0162 0.0000 0.1485 ( 36485 PWs)   bands (ev):

   -44.1313 -44.1313 -22.2474 -22.2474 -22.2337 -22.2337 -22.0555 -22.0555
    -6.7079  -6.6936  -6.0004  -5.9929  -5.9023  -5.8974  -5.3414  -5.3408
    -4.5078  -4.4900  -0.1140  -0.1000   0.5342   0.5357   1.0167   1.0237
     1.4758   1.5838   2.0227   2.0390   2.3803   2.3815   2.6493   2.7722
     2.9738   3.0632   3.0687   3.1771   3.5181   3.6250   3.6628   3.7309
     3.9934   4.1742   6.0034   6.0499   6.4774   6.5642   7.1093   7.1164
     7.3445   7.3502

          k = 1.0162 0.0000-0.2971 ( 36514 PWs)   bands (ev):

   -44.1313 -44.1313 -22.2474 -22.2474 -22.2337 -22.2337 -22.0555 -22.0555
    -6.6998  -6.6998  -6.0119  -6.0119  -5.8860  -5.8860  -5.3378  -5.3378
    -4.5024  -4.5024  -0.1703  -0.1703   0.7920   0.7920   0.9508   0.9508
     1.5316   1.5316   1.7502   1.7502   2.3572   2.3572   2.7433   2.7433
     2.9986   2.9986   3.1097   3.1097   3.6395   3.6395   3.7966   3.7966
     4.3830   4.3830   5.5687   5.5687   6.4361   6.4361   7.1339   7.1339
     7.4268   7.4268

          k = 1.2703 0.0645 0.0000 ( 36468 PWs)   bands (ev):

   -44.1317 -44.1317 -22.2496 -22.2495 -22.2239 -22.2239 -22.0567 -22.0567
    -6.9041  -6.7445  -6.5131  -6.4952  -5.7894  -5.3915  -5.2164  -5.1076
    -4.5763  -4.5155   0.0251   0.0262   0.4802   0.9690   1.0702   1.2391
     1.5082   1.7128   2.0331   2.0837   2.2987   2.4108   2.4344   2.8516
     2.9016   3.1572   3.3465   3.4910   3.5210   3.5730   3.6661   3.7600
     3.9511   4.4539   5.9045   6.3009   6.4492   6.6948   6.9221   7.0611
     7.2329   7.5956

          k = 1.2703 0.0645 0.1485 ( 36490 PWs)   bands (ev):

   -44.1317 -44.1317 -22.2496 -22.2495 -22.2239 -22.2239 -22.0567 -22.0567
    -6.8833  -6.7701  -6.5165  -6.5012  -5.7275  -5.4500  -5.1985  -5.1225
    -4.5640  -4.5220   0.0093   0.2188   0.3670   0.8963   1.0072   1.1946
     1.5507   1.6362   1.8652   2.2398   2.2780   2.5944   2.6824   2.8726
     2.9181   3.1341   3.1646   3.3572   3.4525   3.5584   3.7580   3.8237
     3.9398   4.5424   5.6076   6.4045   6.5900   6.7355   6.8617   7.0648
     7.1202   7.5043

          k = 1.2703 0.0645-0.2971 ( 36480 PWs)   bands (ev):

   -44.1317 -44.1317 -22.2496 -22.2496 -22.2239 -22.2239 -22.0567 -22.0567
    -6.8294  -6.8294  -6.5129  -6.5129  -5.5870  -5.5870  -5.1594  -5.1594
    -4.5402  -4.5402   0.1466   0.1466   0.5739   0.5739   1.0397   1.0397
     1.5821   1.5821   2.0977   2.0977   2.4851   2.4851   2.8191   2.8191
     3.0240   3.0240   3.1757   3.1757   3.5898   3.5898   3.8703   3.8703
     4.0807   4.0807   6.0834   6.0834   6.4409   6.4409   7.0731   7.0731
     7.3348   7.3349

          k =-0.5081-0.3869 0.0000 ( 36463 PWs)   bands (ev):

   -44.1326 -44.1326 -22.2544 -22.2543 -22.2005 -22.2005 -22.0596 -22.0595
    -7.3662  -7.0163  -6.8879  -6.7019  -6.0929  -5.2611  -5.0781  -4.7027
    -4.6214  -4.4458   0.4044   0.6033   0.6510   1.2300   1.3557   1.5608
     1.6573   1.7163   2.0524   2.0675   2.1914   2.3011   2.4139   3.2735
     3.4171   3.4591   3.4820   3.6218   3.7004   3.7523   3.8576   4.0956
     4.4084   5.0876   5.5487   5.9020   6.1741   6.7729   6.7953   6.8484
     7.3180   7.5184

          k =-0.5081-0.3869 0.1485 ( 36477 PWs)   bands (ev):

   -44.1326 -44.1326 -22.2544 -22.2543 -22.2005 -22.2005 -22.0596 -22.0595
    -7.3347  -7.1153  -6.8191  -6.7145  -6.0050  -5.4860  -4.9135  -4.6640
    -4.6529  -4.4669   0.4173   0.6653   0.7491   0.9987   1.3149   1.3880
     1.6026   1.6914   2.0093   2.0678   2.3280   2.5652   2.8232   3.2270
     3.4132   3.4491   3.4893   3.5714   3.6092   3.7232   3.8119   4.1147
     4.2233   4.5329   6.0687   6.1963   6.2558   6.6568   6.7987   6.8761
     7.1519   7.4864

          k =-0.5081-0.3869-0.2971 ( 36492 PWs)   bands (ev):

   -44.1326 -44.1326 -22.2543 -22.2543 -22.2005 -22.2005 -22.0595 -22.0595
    -7.2451  -7.2451  -6.7523  -6.7523  -5.7779  -5.7779  -4.7652  -4.7652
    -4.5444  -4.5444   0.5378   0.5378   1.0266   1.0266   1.0768   1.0768
     1.6194   1.6194   2.0292   2.0292   2.7720   2.7720   3.1485   3.1485
     3.3575   3.3575   3.4472   3.4472   3.6837   3.6837   3.8204   3.8204
     4.2141   4.2141   6.3039   6.3039   6.6727   6.6727   6.7830   6.7830
     7.1618   7.1618

          k =-0.2541-0.3224 0.0000 ( 36485 PWs)   bands (ev):

   -44.1335 -44.1335 -22.2591 -22.2591 -22.1770 -22.1770 -22.0624 -22.0623
    -7.7067  -7.3430  -7.0457  -6.8245  -6.2972  -5.3654  -4.9789  -4.8128
    -4.7264  -3.9923   0.4871   0.8950   1.0847   1.2751   1.3101   1.5073
     1.8686   1.9201   2.0348   2.4581   2.5359   3.2438   3.3226   3.4818
     3.6043   3.6410   3.7485   3.8202   3.9211   4.1438   4.1484   4.2463
     4.3443   4.6014   5.9509   6.0322   6.3466   6.5849   6.7090   6.7970
     6.9206   7.0231

          k =-0.2541-0.3224 0.1485 ( 36445 PWs)   bands (ev):

   -44.1335 -44.1335 -22.2591 -22.2591 -22.1770 -22.1770 -22.0624 -22.0623
    -7.6727  -7.4362  -6.9736  -6.8395  -6.2086  -5.6203  -4.8588  -4.7473
    -4.6566  -4.0824   0.5338   0.9486   0.9829   1.1637   1.2906   1.4887
     1.8054   2.1235   2.3282   2.4619   2.5234   2.9175   3.3809   3.4262
     3.4774   3.5435   3.6714   3.8887   3.9140   4.0797   4.1908   4.2468
     4.6985   4.8393   5.8143   5.9779   6.1631   6.3636   6.5886   6.7423
     7.1439   7.2722

          k =-0.2541-0.3224-0.2971 ( 36442 PWs)   bands (ev):

   -44.1335 -44.1335 -22.2591 -22.2591 -22.1770 -22.1770 -22.0623 -22.0623
    -7.5754  -7.5754  -6.8872  -6.8872  -5.9613  -5.9613  -4.7973  -4.7973
    -4.3284  -4.3284   0.6941   0.6941   1.1773   1.1773   1.2247   1.2247
     2.1528   2.1528   2.4406   2.4406   2.6648   2.6648   3.2318   3.2318
     3.4565   3.4565   3.7953   3.7953   4.0395   4.0395   4.2268   4.2268
     5.0658   5.0658   5.6973   5.6973   6.1361   6.1361   6.6198   6.6198
     7.3689   7.3689

          k = 0.0000-0.2579 0.0000 ( 36445 PWs)   bands (ev):

   -44.1338 -44.1338 -22.2610 -22.2610 -22.1673 -22.1672 -22.0636 -22.0634
    -7.8289  -7.4559  -7.1172  -6.8682  -6.3554  -5.4109  -4.9624  -4.8548
    -4.7713  -3.8401   0.4062   0.7646   0.9169   1.1731   1.5004   1.6173
     2.2896   2.3467   2.5995   2.7565   2.9514   3.0384   3.3190   3.3817
     3.4281   3.6507   3.7450   3.9602   4.1536   4.1690   4.2386   4.6704
     4.8292   5.4157   5.7164   5.8421   5.9101   6.0755   6.3122   6.7813
     6.9818   7.1809

          k = 0.0000-0.2579 0.1485 ( 36452 PWs)   bands (ev):

   -44.1338 -44.1338 -22.2610 -22.2610 -22.1673 -22.1672 -22.0635 -22.0635
    -7.7940  -7.5512  -7.0370  -6.8845  -6.2708  -5.6748  -4.8756  -4.7897
    -4.6436  -3.9543   0.4656   0.9262   0.9503   1.0645   1.1431   1.9426
     2.1219   2.3176   2.5139   2.8246   2.9391   3.1285   3.2967   3.3722
     3.6292   3.6577   3.8132   3.9131   4.1679   4.1787   4.2050   4.6727
     4.7607   4.9757   5.8494   6.0162   6.0334   6.0525   6.5809   6.6089
     6.8068   7.1429

          k = 0.0000-0.2579-0.2971 ( 36454 PWs)   bands (ev):

   -44.1338 -44.1338 -22.2610 -22.2610 -22.1673 -22.1673 -22.0635 -22.0635
    -7.6942  -7.6942  -6.9381  -6.9381  -6.0253  -6.0253  -4.8305  -4.8305
    -4.2547  -4.2547   0.6816   0.6816   1.0304   1.0304   1.3887   1.3887
     2.3977   2.3977   2.6799   2.6799   2.8990   2.8990   3.3537   3.3537
     3.7740   3.7740   3.9871   3.9871   4.1155   4.1155   4.3907   4.3907
     4.6921   4.6921   5.9600   5.9600   6.2761   6.2761   6.4263   6.4263
     6.9824   6.9824

          k = 1.5243 0.0000 0.0000 ( 36439 PWs)   bands (ev):

   -44.1326 -44.1326 -22.2544 -22.2543 -22.2005 -22.2005 -22.0596 -22.0595
    -7.3616  -7.0156  -6.8880  -6.7054  -6.0967  -5.2609  -5.0811  -4.7043
    -4.6186  -4.4463   0.3993   0.6135   0.6405   1.2342   1.3921   1.5981
     1.6720   1.6882   2.0695   2.0695   2.2379   2.2624   2.4105   3.2286
     3.4094   3.4297   3.4914   3.6970   3.7165   3.7325   3.7356   4.1140
     4.4027   5.0877   5.5454   5.8637   6.2041   6.7367   6.8489   6.9032
     7.2722   7.5512

          k = 1.5243 0.0000 0.1485 ( 36476 PWs)   bands (ev):

   -44.1326 -44.1326 -22.2544 -22.2543 -22.2005 -22.2005 -22.0596 -22.0595
    -7.3303  -7.1126  -6.8217  -6.7183  -6.0075  -5.4860  -4.9177  -4.6634
    -4.6527  -4.4659   0.4156   0.6704   0.7443   0.9965   1.3285   1.3910
     1.6491   1.7180   2.0135   2.0509   2.3339   2.5688   2.8290   3.1842
     3.3743   3.4559   3.4721   3.6042   3.6311   3.7181   3.7556   4.1494
     4.1650   4.5369   6.0427   6.2090   6.2508   6.6270   6.8404   6.9440
     7.1044   7.4994

          k = 1.5243 0.0000-0.2971 ( 36508 PWs)   bands (ev):

   -44.1326 -44.1326 -22.2543 -22.2543 -22.2005 -22.2005 -22.0595 -22.0595
    -7.2412  -7.2412  -6.7563  -6.7563  -5.7786  -5.7786  -4.7687  -4.7687
    -4.5421  -4.5421   0.5400   0.5400   1.0251   1.0251   1.0726   1.0726
     1.6735   1.6735   2.0135   2.0135   2.7914   2.7914   3.1121   3.1121
     3.3566   3.3566   3.4406   3.4406   3.6822   3.6822   3.8145   3.8145
     4.1960   4.1960   6.2898   6.2898   6.6689   6.6689   6.7941   6.7941
     7.1771   7.1771

          k =-0.2541-0.4514 0.0000 ( 36444 PWs)   bands (ev):

   -44.1335 -44.1335 -22.2591 -22.2591 -22.1770 -22.1770 -22.0624 -22.0623
    -7.6992  -7.3418  -7.0408  -6.8300  -6.3114  -5.3666  -4.9876  -4.8134
    -4.7213  -3.9933   0.4977   0.9044   1.2037   1.2683   1.3302   1.5929
     1.8955   1.9587   2.0312   2.3768   2.4616   3.2153   3.3420   3.4110
     3.5073   3.6749   3.7724   3.8045   3.8427   4.1021   4.1199   4.1900
     4.3378   4.6009   6.0228   6.0450   6.3739   6.5791   6.7722   6.8006
     6.8346   7.0024

          k =-0.2541-0.4514 0.1485 ( 36461 PWs)   bands (ev):

   -44.1335 -44.1335 -22.2591 -22.2591 -22.1770 -22.1770 -22.0624 -22.0623
    -7.6654  -7.4320  -6.9741  -6.8454  -6.2191  -5.6220  -4.8716  -4.7449
    -4.6516  -4.0823   0.5424   0.9620   0.9876   1.2948   1.3466   1.5141
     1.8291   2.1244   2.3672   2.3872   2.4473   2.9181   3.3146   3.3443
     3.4469   3.5601   3.7273   3.8449   3.8771   3.9665   4.1834   4.2143
     4.7418   4.8005   5.8074   6.0023   6.1693   6.3476   6.6560   6.7415
     7.1278   7.2579

          k =-0.2541-0.4514-0.2971 ( 36490 PWs)   bands (ev):

   -44.1335 -44.1335 -22.2591 -22.2591 -22.1770 -22.1770 -22.0623 -22.0623
    -7.5690  -7.5690  -6.8924  -6.8924  -5.9661  -5.9661  -4.8021  -4.8021
    -4.3261  -4.3261   0.6996   0.6996   1.1959   1.1959   1.3259   1.3259
     2.1607   2.1607   2.3872   2.3872   2.6621   2.6621   3.2366   3.2366
     3.3516   3.3516   3.8220   3.8220   3.9824   3.9824   4.1955   4.1955
     5.0770   5.0770   5.6722   5.6722   6.1178   6.1178   6.6794   6.6794
     7.3557   7.3557

          k = 0.0000-0.3869 0.0000 ( 36477 PWs)   bands (ev):

   -44.1339 -44.1338 -22.2610 -22.2610 -22.1673 -22.1672 -22.0636 -22.0634
    -7.8195  -7.4544  -7.1080  -6.8756  -6.3772  -5.4138  -4.9763  -4.8541
    -4.7638  -3.8415   0.4294   0.7768   1.0691   1.2350   1.5247   1.6864
     2.2922   2.3507   2.5972   2.7757   2.9513   3.0758   3.1090   3.1429
     3.5325   3.6076   3.7175   3.9489   3.9825   4.0205   4.2386   4.6700
     4.8038   5.3879   5.7773   5.8605   5.9713   6.1213   6.3719   6.6957
     6.9820   7.1517

          k = 0.0000-0.3869 0.1485 ( 36452 PWs)   bands (ev):

   -44.1338 -44.1338 -22.2610 -22.2610 -22.1673 -22.1672 -22.0635 -22.0635
    -7.7849  -7.5459  -7.0350  -6.8920  -6.2876  -5.6783  -4.8926  -4.7856
    -4.6379  -3.9544   0.4836   0.9569   1.0223   1.1637   1.2251   1.9617
     2.1613   2.3204   2.5159   2.8371   2.9407   3.0136   3.0950   3.3295
     3.5622   3.6885   3.7881   3.9134   4.0404   4.0645   4.1609   4.6720
     4.7456   4.9726   5.8947   6.0462   6.0528   6.0748   6.5518   6.6123
     6.8090   7.1111

          k = 0.0000-0.3869-0.2971 ( 36454 PWs)   bands (ev):

   -44.1338 -44.1338 -22.2610 -22.2610 -22.1673 -22.1673 -22.0635 -22.0635
    -7.6862  -7.6862  -6.9435  -6.9435  -6.0335  -6.0335  -4.8365  -4.8365
    -4.2524  -4.2524   0.6959   0.6959   1.1622   1.1622   1.4079   1.4079
     2.4007   2.4007   2.6875   2.6875   2.9052   2.9052   3.1425   3.1425
     3.8072   3.8072   3.9689   3.9689   3.9966   3.9966   4.3701   4.3701
     4.6881   4.6881   5.9536   5.9536   6.3042   6.3042   6.4328   6.4328
     6.9542   6.9542

          k =-2.0325 0.0000 0.0000 ( 36452 PWs)   bands (ev):

   -44.1338 -44.1338 -22.2610 -22.2610 -22.1673 -22.1672 -22.0636 -22.0634
    -7.8155  -7.4538  -7.1045  -6.8782  -6.3865  -5.4150  -4.9821  -4.8528
    -4.7617  -3.8420   0.4350   0.7821   1.1884   1.2182   1.5343   1.7288
     2.2933   2.3533   2.5963   2.7841   2.9510   2.9781   3.0288   3.0969
     3.6140   3.6571   3.7059   3.8426   3.9455   3.9620   4.2386   4.6699
     4.7934   5.3796   5.8024   5.8682   6.0040   6.1354   6.3905   6.6464
     6.9821   7.1461

          k =-2.0325 0.0000 0.1485 ( 36456 PWs)   bands (ev):

   -44.1338 -44.1338 -22.2610 -22.2610 -22.1673 -22.1672 -22.0635 -22.0635
    -7.7810  -7.5437  -7.0345  -6.8948  -6.2946  -5.6798  -4.8990  -4.7843
    -4.6357  -3.9545   0.4870   0.9667   1.0439   1.2246   1.2758   1.9704
     2.1797   2.3215   2.5167   2.8426   2.9169   2.9413   2.9770   3.3528
     3.5415   3.7551   3.7775   3.9129   3.9535   4.0062   4.1579   4.6718
     4.7395   4.9723   5.9183   6.0516   6.0677   6.0751   6.5262   6.6163
     6.8099   7.1011

          k =-2.0325 0.0000-0.2971 ( 36460 PWs)   bands (ev):

   -44.1338 -44.1338 -22.2610 -22.2610 -22.1673 -22.1673 -22.0635 -22.0635
    -7.6828  -7.6828  -6.9459  -6.9459  -6.0369  -6.0369  -4.8389  -4.8389
    -4.2514  -4.2514   0.6980   0.6980   1.2329   1.2329   1.4160   1.4160
     2.4019   2.4019   2.6727   2.6727   2.9078   2.9078   3.0553   3.0553
     3.8489   3.8489   3.9306   3.9306   3.9612   3.9612   4.3625   4.3625
     4.6866   4.6866   5.9478   5.9478   6.3136   6.3136   6.4355   6.4355
     6.9412   6.9412

     the Fermi energy is     5.5253 ev

!    total energy              =   -4240.95394439 Ry

     total all-electron energy =   -150287.647639 Ry
     estimated scf accuracy    <          6.2E-11 Ry
     smearing contrib. (-TS)   =       0.00002998 Ry
     internal energy E=F+TS    =   -4240.95397437 Ry

     The total energy is F=E-TS. E is the sum of the following terms:
     one-electron contribution =    -166.77547027 Ry
     hartree contribution      =     116.86688467 Ry
     xc contribution           =    -201.49387636 Ry
     ewald contribution        =    -222.03245937 Ry
     one-center paw contrib.   =   -3767.51905305 Ry

     convergence has been achieved in  16 iterations

     Forces acting on atoms (cartesian axes, Ry/au):

     atom    1 type  1   force =     0.00000000   -0.00167736    0.00000000
     atom    2 type  1   force =     0.00000000    0.00167736    0.00000000
     atom    3 type  2   force =    -0.00000000    0.00010578    0.00000000
     atom    4 type  2   force =     0.00000000   -0.00010578    0.00000000
     atom    5 type  2   force =     0.00000000    0.00037509    0.00027734
     atom    6 type  2   force =     0.00000000   -0.00037509   -0.00027734
     atom    7 type  2   force =    -0.00000000    0.00037509   -0.00027734
     atom    8 type  2   force =    -0.00000000   -0.00037509    0.00027734
     atom    9 type  2   force =     0.00000000    0.00231575    0.00231620
     atom   10 type  2   force =     0.00000000   -0.00231575   -0.00231620
     atom   11 type  2   force =    -0.00000000    0.00231575   -0.00231620
     atom   12 type  2   force =    -0.00000000   -0.00231575    0.00231620

     Total force =     0.007031     Total SCF correction =     0.000011


     Computing stress (Cartesian axis) and pressure

          total   stress  (Ry/bohr**3)                   (kbar)     P=       -0.54
  -0.00000206   0.00000000   0.00000000           -0.30        0.00        0.00
  -0.00000000  -0.00000300   0.00000000           -0.00       -0.44        0.00
   0.00000000   0.00000000  -0.00000599            0.00        0.00       -0.88

 
     init_run     :     35.62s CPU     37.02s WALL (       1 calls)
     electrons    :   1589.51s CPU   1606.71s WALL (       1 calls)
     forces       :      7.73s CPU      8.00s WALL (       1 calls)
     stress       :     54.26s CPU     55.01s WALL (       1 calls)

     Called by init_run:
     wfcinit      :     30.61s CPU     30.92s WALL (       1 calls)
     potinit      :      1.50s CPU      1.56s WALL (       1 calls)
     hinit0       :      1.75s CPU      2.49s WALL (       1 calls)

     Called by electrons:
     c_bands      :   1282.09s CPU   1289.08s WALL (      17 calls)
     sum_band     :    276.09s CPU    282.18s WALL (      17 calls)
     v_of_rho     :      7.87s CPU      8.46s WALL (      17 calls)
     newd         :     16.98s CPU     20.76s WALL (      17 calls)
     PAW_pot      :      6.13s CPU      6.14s WALL (      17 calls)
     mix_rho      :      1.44s CPU      1.48s WALL (      17 calls)

     Called by c_bands:
     init_us_2    :     13.14s CPU     13.21s WALL (    2331 calls)
     cegterg      :   1209.54s CPU   1215.88s WALL (    1071 calls)

     Called by *egterg:
     cdiaghg      :     26.60s CPU     26.71s WALL (    7514 calls)
     h_psi        :   1042.64s CPU   1048.84s WALL (    7640 calls)
     s_psi        :     47.75s CPU     47.82s WALL (    7640 calls)
     g_psi        :      2.09s CPU      2.10s WALL (    6506 calls)

     Called by h_psi:
     h_psi:calbec :     40.54s CPU     40.63s WALL (    7640 calls)
     vloc_psi     :    950.84s CPU    956.80s WALL (    7640 calls)
     add_vuspsi   :     47.48s CPU     47.56s WALL (    7640 calls)

     General routines
     calbec       :     53.49s CPU     53.64s WALL (    9026 calls)
     fft          :      7.35s CPU      8.11s WALL (     245 calls)
     ffts         :      0.18s CPU      0.18s WALL (      34 calls)
     fftw         :    946.79s CPU    952.79s WALL (  393072 calls)
     interpolate  :      0.63s CPU      0.63s WALL (      17 calls)
 
     Parallel routines
     fft_scatt_xy :    260.19s CPU    261.89s WALL (  393351 calls)
     fft_scatt_yz :    160.87s CPU    162.21s WALL (  393351 calls)
 
     PWSCF        :  28m 8.08s CPU  28m32.98s WALL

 
   This run was terminated on:  15:14:54  19Nov2021            

=------------------------------------------------------------------------------=
   JOB DONE.
=------------------------------------------------------------------------------=
