
     Program PWSCF v.6.8 starts on 19Nov2021 at 15:13: 0 

     This program is part of the open-source Quantum ESPRESSO suite
     for quantum simulation of materials; please cite
         "P. Giannozzi et al., J. Phys.:Condens. Matter 21 395502 (2009);
         "P. Giannozzi et al., J. Phys.:Condens. Matter 29 465901 (2017);
         "P. Giannozzi et al., J. Chem. Phys. 152 154105 (2020);
          URL http://www.quantum-espresso.org", 
     in publications or presentations arising from this work. More details at
     http://www.quantum-espresso.org/quote

     Parallel version (MPI), running on    10 processors

     MPI processes distributed on     1 nodes
     R & G space division:  proc/nbgrp/npool/nimage =      10
     70508 MiB available memory on the printing compute node when the environment starts
 
     Waiting for input...
     Reading input from standard input

     Current dimensions of program PWSCF are:
     Max number of different atomic species (ntypx) = 10
     Max number of k-points (npk) =  40000
     Max angular momentum in pseudopotentials (lmaxx) =  4
     file Zr.pbe-spn-kjpaw_psl.1.0.0.UPF: wavefunction(s)  4S 4P renormalized
     file Te.pbe-n-kjpaw_psl.1.0.0.UPF: wavefunction(s)  5S 5P renormalized
     Message from routine setup:
     using ibrav=0 with symmetry is DISCOURAGED, use correct ibrav instead

     Subspace diagonalization in iterative solution of the eigenvalue problem:
     a serial algorithm will be used

 
     Parallelization info
     --------------------
     sticks:   dense  smooth     PW     G-vecs:    dense   smooth      PW
     Min         734     293     87               115340    29174    4753
     Max         735     295     88               115345    29176    4760
     Sum        7345    2937    873              1153415   291749   47557
 
     Using Slab Decomposition
 


     bravais-lattice index     =            0
     lattice parameter (alat)  =      15.5510  a.u.
     unit-cell volume          =    3018.5011 (a.u.)^3
     number of atoms/cell      =           12
     number of atomic types    =            2
     number of electrons       =        84.00
     number of Kohn-Sham states=           50
     kinetic-energy cutoff     =      80.0000  Ry
     charge density cutoff     =     800.0000  Ry
     scf convergence threshold =      1.0E-10
     mixing beta               =       0.7000
     number of iterations used =            8  plain     mixing
     Exchange-correlation= SLA  PW   PBX  PBC
                           (   1   4   3   4   0   0   0)

     celldm(1)=  15.551040  celldm(2)=   0.000000  celldm(3)=   0.000000
     celldm(4)=   0.000000  celldm(5)=   0.000000  celldm(6)=   0.000000

     crystal axes: (cart. coord. in units of alat)
               a(1) = (   0.246007  -0.969268   0.000000 )  
               a(2) = (   0.246007   0.969268   0.000000 )  
               a(3) = (   0.000000   0.000000   1.683031 )  

     reciprocal axes: (cart. coord. in units 2 pi/alat)
               b(1) = (  2.032465 -0.515853  0.000000 )  
               b(2) = (  2.032465  0.515853  0.000000 )  
               b(3) = (  0.000000  0.000000  0.594166 )  


     PseudoPot. # 1 for Zr read from file:
     pseudo/Zr.pbe-spn-kjpaw_psl.1.0.0.UPF
     MD5 check sum: 02112c41713a0468aff2bb39ef194e36
     Pseudo is Projector augmented-wave + core cor, Zval = 12.0
     Generated using &quot;atomic&quot; code by A. Dal Corso  v.6.2.2
     Shape of augmentation charge: PSQ
     Using radial grid of 1225 points,  6 beta functions with: 
                l(1) =   0
                l(2) =   0
                l(3) =   1
                l(4) =   1
                l(5) =   2
                l(6) =   2
     Q(r) pseudized with 0 coefficients 


     PseudoPot. # 2 for Te read from file:
     pseudo/Te.pbe-n-kjpaw_psl.1.0.0.UPF
     MD5 check sum: 66247bff2bd9dbf220fbb0bf5ab56e9d
     Pseudo is Projector augmented-wave + core cor, Zval =  6.0
     Generated using &quot;atomic&quot; code by A. Dal Corso  v.6.3
     Shape of augmentation charge: PSQ
     Using radial grid of 1245 points,  6 beta functions with: 
                l(1) =   0
                l(2) =   0
                l(3) =   1
                l(4) =   1
                l(5) =   2
                l(6) =   2
     Q(r) pseudized with 0 coefficients 


     atomic species   valence    mass     pseudopotential
        Zr            12.00    91.22000     Zr( 1.00)
        Te             6.00   127.60000     Te( 1.00)

      8 Sym. Ops., with inversion, found ( 4 have fractional translation)



   Cartesian axes

     site n.     atom                  positions (alat units)
         1           Zr  tau(   1) = (   0.0000000   0.6054814   0.4207578  )
         2           Zr  tau(   2) = (   0.2460067   0.3637867   1.2622733  )
         3           Te  tau(   3) = (   0.2460067   0.3342459   0.4207578  )
         4           Te  tau(   4) = (   0.0000000   0.6350223   1.2622733  )
         5           Te  tau(   5) = (   0.2460067   0.8098832   0.2521025  )
         6           Te  tau(   6) = (   0.0000000   0.1593850   1.4309285  )
         7           Te  tau(   7) = (   0.2460067   0.8098832   0.5894130  )
         8           Te  tau(   8) = (   0.0000000   0.1593850   1.0936181  )
         9           Te  tau(   9) = (   0.0000000   0.4151127   0.7310931  )
        10           Te  tau(  10) = (   0.2460067   0.5541554   0.9519379  )
        11           Te  tau(  11) = (   0.0000000   0.4151127   0.1104224  )
        12           Te  tau(  12) = (   0.2460067   0.5541554   1.5726087  )

     number of k points=    63  Methfessel-Paxton smearing, width (Ry)=  0.0030
                       cart. coord. in units 2pi/alat
        k(    1) = (   0.0000000   0.0000000   0.0000000), wk =   0.0078125
        k(    2) = (   0.0000000   0.0000000   0.1485415), wk =   0.0156250
        k(    3) = (   0.0000000   0.0000000  -0.2970830), wk =   0.0078125
        k(    4) = (   0.2540581   0.0644816   0.0000000), wk =   0.0312500
        k(    5) = (   0.2540581   0.0644816   0.1485415), wk =   0.0625000
        k(    6) = (   0.2540581   0.0644816  -0.2970830), wk =   0.0312500
        k(    7) = (   0.5081162   0.1289633   0.0000000), wk =   0.0312500
        k(    8) = (   0.5081162   0.1289633   0.1485415), wk =   0.0625000
        k(    9) = (   0.5081162   0.1289633  -0.2970830), wk =   0.0312500
        k(   10) = (   0.7621743   0.1934449   0.0000000), wk =   0.0312500
        k(   11) = (   0.7621743   0.1934449   0.1485415), wk =   0.0625000
        k(   12) = (   0.7621743   0.1934449  -0.2970830), wk =   0.0312500
        k(   13) = (  -1.0162324  -0.2579266   0.0000000), wk =   0.0156250
        k(   14) = (  -1.0162324  -0.2579266   0.1485415), wk =   0.0312500
        k(   15) = (  -1.0162324  -0.2579266  -0.2970830), wk =   0.0156250
        k(   16) = (   0.5081162   0.0000000   0.0000000), wk =   0.0156250
        k(   17) = (   0.5081162   0.0000000   0.1485415), wk =   0.0312500
        k(   18) = (   0.5081162   0.0000000  -0.2970830), wk =   0.0156250
        k(   19) = (   0.7621743   0.0644816   0.0000000), wk =   0.0312500
        k(   20) = (   0.7621743   0.0644816   0.1485415), wk =   0.0625000
        k(   21) = (   0.7621743   0.0644816  -0.2970830), wk =   0.0312500
        k(   22) = (   1.0162324   0.1289633   0.0000000), wk =   0.0312500
        k(   23) = (   1.0162324   0.1289633   0.1485415), wk =   0.0625000
        k(   24) = (   1.0162324   0.1289633  -0.2970830), wk =   0.0312500
        k(   25) = (  -0.7621743  -0.3224082   0.0000000), wk =   0.0312500
        k(   26) = (  -0.7621743  -0.3224082   0.1485415), wk =   0.0625000
        k(   27) = (  -0.7621743  -0.3224082  -0.2970830), wk =   0.0312500
        k(   28) = (  -0.5081162  -0.2579266   0.0000000), wk =   0.0312500
        k(   29) = (  -0.5081162  -0.2579266   0.1485415), wk =   0.0625000
        k(   30) = (  -0.5081162  -0.2579266  -0.2970830), wk =   0.0312500
        k(   31) = (  -0.2540581  -0.1934449   0.0000000), wk =   0.0312500
        k(   32) = (  -0.2540581  -0.1934449   0.1485415), wk =   0.0625000
        k(   33) = (  -0.2540581  -0.1934449  -0.2970830), wk =   0.0312500
        k(   34) = (   0.0000000  -0.1289633   0.0000000), wk =   0.0156250
        k(   35) = (   0.0000000  -0.1289633   0.1485415), wk =   0.0312500
        k(   36) = (   0.0000000  -0.1289633  -0.2970830), wk =   0.0156250
        k(   37) = (   1.0162324   0.0000000   0.0000000), wk =   0.0156250
        k(   38) = (   1.0162324   0.0000000   0.1485415), wk =   0.0312500
        k(   39) = (   1.0162324   0.0000000  -0.2970830), wk =   0.0156250
        k(   40) = (   1.2702905   0.0644816   0.0000000), wk =   0.0312500
        k(   41) = (   1.2702905   0.0644816   0.1485415), wk =   0.0625000
        k(   42) = (   1.2702905   0.0644816  -0.2970830), wk =   0.0312500
        k(   43) = (  -0.5081162  -0.3868899   0.0000000), wk =   0.0312500
        k(   44) = (  -0.5081162  -0.3868899   0.1485415), wk =   0.0625000
        k(   45) = (  -0.5081162  -0.3868899  -0.2970830), wk =   0.0312500
        k(   46) = (  -0.2540581  -0.3224082   0.0000000), wk =   0.0312500
        k(   47) = (  -0.2540581  -0.3224082   0.1485415), wk =   0.0625000
        k(   48) = (  -0.2540581  -0.3224082  -0.2970830), wk =   0.0312500
        k(   49) = (   0.0000000  -0.2579266   0.0000000), wk =   0.0156250
        k(   50) = (   0.0000000  -0.2579266   0.1485415), wk =   0.0312500
        k(   51) = (   0.0000000  -0.2579266  -0.2970830), wk =   0.0156250
        k(   52) = (   1.5243485   0.0000000   0.0000000), wk =   0.0156250
        k(   53) = (   1.5243485   0.0000000   0.1485415), wk =   0.0312500
        k(   54) = (   1.5243485   0.0000000  -0.2970830), wk =   0.0156250
        k(   55) = (  -0.2540581  -0.4513715   0.0000000), wk =   0.0312500
        k(   56) = (  -0.2540581  -0.4513715   0.1485415), wk =   0.0625000
        k(   57) = (  -0.2540581  -0.4513715  -0.2970830), wk =   0.0312500
        k(   58) = (   0.0000000  -0.3868899   0.0000000), wk =   0.0156250
        k(   59) = (   0.0000000  -0.3868899   0.1485415), wk =   0.0312500
        k(   60) = (   0.0000000  -0.3868899  -0.2970830), wk =   0.0156250
        k(   61) = (  -2.0324647   0.0000000   0.0000000), wk =   0.0078125
        k(   62) = (  -2.0324647   0.0000000   0.1485415), wk =   0.0156250
        k(   63) = (  -2.0324647   0.0000000  -0.2970830), wk =   0.0078125

     Dense  grid:  1153415 G-vectors     FFT dimensions: ( 144, 144, 240)

     Smooth grid:   291749 G-vectors     FFT dimensions: (  90,  90, 150)

     Estimated max dynamical RAM per process >     657.19 MB

     Estimated total dynamical RAM >       6.42 GB

     Initial potential from superposition of free atoms

     starting charge   83.99353, renormalised to   84.00000
     Starting wfcs are   66 randomized atomic wfcs
     Checking if some PAW data can be deallocated... 

     total cpu time spent up to now is       26.0 secs

     Self-consistent Calculation

     iteration #  1     ecut=    80.00 Ry     beta= 0.70
     Davidson diagonalization with overlap
     ethr =  1.00E-02,  avg # of iterations =  2.1

     Threshold (ethr) on eigenvalues was too large:
     Diagonalizing with lowered threshold

     Davidson diagonalization with overlap
     ethr =  4.16E-04,  avg # of iterations =  4.0

     total cpu time spent up to now is      115.8 secs

     total energy              =   -4240.73161857 Ry
     estimated scf accuracy    <       0.43489227 Ry

     iteration #  2     ecut=    80.00 Ry     beta= 0.70
     Davidson diagonalization with overlap
     ethr =  5.18E-04,  avg # of iterations =  7.7

     total cpu time spent up to now is      176.9 secs

     total energy              =   -4240.63664167 Ry
     estimated scf accuracy    <       2.06544985 Ry

     iteration #  3     ecut=    80.00 Ry     beta= 0.70
     Davidson diagonalization with overlap
     ethr =  5.18E-04,  avg # of iterations =  5.2

     total cpu time spent up to now is      228.7 secs

     WARNING: integrated charge=    83.99925845, expected=    84.00000000

     total energy              =   -4240.93857086 Ry
     estimated scf accuracy    <       0.01037703 Ry

     iteration #  4     ecut=    80.00 Ry     beta= 0.70
     Davidson diagonalization with overlap
     c_bands:  1 eigenvalues not converged
     c_bands:  2 eigenvalues not converged
     c_bands:  2 eigenvalues not converged
     c_bands:  1 eigenvalues not converged
     c_bands:  2 eigenvalues not converged
     c_bands:  2 eigenvalues not converged
     c_bands:  2 eigenvalues not converged
     c_bands:  1 eigenvalues not converged
     c_bands:  1 eigenvalues not converged
     c_bands:  2 eigenvalues not converged
     c_bands:  1 eigenvalues not converged
     c_bands:  1 eigenvalues not converged
     c_bands:  1 eigenvalues not converged
     c_bands:  1 eigenvalues not converged
     c_bands:  1 eigenvalues not converged
     c_bands:  1 eigenvalues not converged
     c_bands:  1 eigenvalues not converged
     c_bands:  1 eigenvalues not converged
     c_bands:  1 eigenvalues not converged
     c_bands:  1 eigenvalues not converged
     c_bands:  1 eigenvalues not converged
     c_bands:  1 eigenvalues not converged
     c_bands:  2 eigenvalues not converged
     c_bands:  1 eigenvalues not converged
     ethr =  1.24E-05,  avg # of iterations = 17.9

     total cpu time spent up to now is      328.9 secs

     WARNING: integrated charge=    83.99944251, expected=    84.00000000

     total energy              =   -4240.95036427 Ry
     estimated scf accuracy    <       0.06537501 Ry

     iteration #  5     ecut=    80.00 Ry     beta= 0.70
     Davidson diagonalization with overlap
     ethr =  1.24E-05,  avg # of iterations =  7.1

     total cpu time spent up to now is      380.2 secs

     WARNING: integrated charge=    83.99965940, expected=    84.00000000

     total energy              =   -4240.95231951 Ry
     estimated scf accuracy    <       0.01246885 Ry

     iteration #  6     ecut=    80.00 Ry     beta= 0.70
     Davidson diagonalization with overlap
     ethr =  1.24E-05,  avg # of iterations =  3.2

     total cpu time spent up to now is      421.3 secs

     WARNING: integrated charge=    83.99868218, expected=    84.00000000

     total energy              =   -4240.95411938 Ry
     estimated scf accuracy    <       0.00150276 Ry

     iteration #  7     ecut=    80.00 Ry     beta= 0.70
     Davidson diagonalization with overlap
     c_bands:  1 eigenvalues not converged
     c_bands:  1 eigenvalues not converged
     ethr =  1.79E-06,  avg # of iterations = 12.1

     total cpu time spent up to now is      491.6 secs

     WARNING: integrated charge=    83.99788357, expected=    84.00000000

     total energy              =   -4240.95527636 Ry
     estimated scf accuracy    <       0.00159151 Ry

     iteration #  8     ecut=    80.00 Ry     beta= 0.70
     Davidson diagonalization with overlap
     c_bands:  1 eigenvalues not converged
     ethr =  1.79E-06,  avg # of iterations =  2.4

     total cpu time spent up to now is      529.4 secs

     WARNING: integrated charge=    83.99768108, expected=    84.00000000

     total energy              =   -4240.95504956 Ry
     estimated scf accuracy    <       0.00025045 Ry

     iteration #  9     ecut=    80.00 Ry     beta= 0.70
     Davidson diagonalization with overlap
     ethr =  2.98E-07,  avg # of iterations =  6.3

     total cpu time spent up to now is      580.0 secs

     WARNING: integrated charge=    83.99775677, expected=    84.00000000

     total energy              =   -4240.95489899 Ry
     estimated scf accuracy    <       0.00002673 Ry

     iteration # 10     ecut=    80.00 Ry     beta= 0.70
     Davidson diagonalization with overlap
     ethr =  3.18E-08,  avg # of iterations =  3.9

     total cpu time spent up to now is      621.9 secs

     WARNING: integrated charge=    83.99780051, expected=    84.00000000

     total energy              =   -4240.95494235 Ry
     estimated scf accuracy    <       0.00000452 Ry

     iteration # 11     ecut=    80.00 Ry     beta= 0.70
     Davidson diagonalization with overlap
     ethr =  5.39E-09,  avg # of iterations =  5.9

     total cpu time spent up to now is      673.0 secs

     WARNING: integrated charge=    83.99782707, expected=    84.00000000

     total energy              =   -4240.95496359 Ry
     estimated scf accuracy    <       0.00000105 Ry

     iteration # 12     ecut=    80.00 Ry     beta= 0.70
     Davidson diagonalization with overlap
     ethr =  1.25E-09,  avg # of iterations =  2.7

     total cpu time spent up to now is      711.8 secs

     WARNING: integrated charge=    83.99784680, expected=    84.00000000

     total energy              =   -4240.95495385 Ry
     estimated scf accuracy    <       0.00000010 Ry

     iteration # 13     ecut=    80.00 Ry     beta= 0.70
     Davidson diagonalization with overlap
     ethr =  1.13E-10,  avg # of iterations =  8.2

     total cpu time spent up to now is      772.8 secs

     WARNING: integrated charge=    83.99784507, expected=    84.00000000

     total energy              =   -4240.95495107 Ry
     estimated scf accuracy    <       0.00000009 Ry

     iteration # 14     ecut=    80.00 Ry     beta= 0.70
     Davidson diagonalization with overlap
     ethr =  1.13E-10,  avg # of iterations =  1.5

     total cpu time spent up to now is      808.8 secs

     WARNING: integrated charge=    83.99784050, expected=    84.00000000

     total energy              =   -4240.95495276 Ry
     estimated scf accuracy    <       0.00000003 Ry

     iteration # 15     ecut=    80.00 Ry     beta= 0.70
     Davidson diagonalization with overlap
     ethr =  3.77E-11,  avg # of iterations =  5.8

     total cpu time spent up to now is      856.0 secs

     WARNING: integrated charge=    83.99784103, expected=    84.00000000

     total energy              =   -4240.95495475 Ry
     estimated scf accuracy    <          2.0E-09 Ry

     iteration # 16     ecut=    80.00 Ry     beta= 0.70
     Davidson diagonalization with overlap
     ethr =  2.39E-12,  avg # of iterations =  6.1

     total cpu time spent up to now is      904.1 secs

     WARNING: integrated charge=    83.99784114, expected=    84.00000000

     total energy              =   -4240.95495445 Ry
     estimated scf accuracy    <          1.5E-09 Ry

     iteration # 17     ecut=    80.00 Ry     beta= 0.70
     Davidson diagonalization with overlap
     ethr =  1.81E-12,  avg # of iterations =  2.3

     total cpu time spent up to now is      941.6 secs

     WARNING: integrated charge=    83.99784145, expected=    84.00000000

     total energy              =   -4240.95495422 Ry
     estimated scf accuracy    <          4.6E-10 Ry

     iteration # 18     ecut=    80.00 Ry     beta= 0.70
     Davidson diagonalization with overlap
     ethr =  5.43E-13,  avg # of iterations =  5.7

     total cpu time spent up to now is      987.9 secs

     End of self-consistent calculation

          k = 0.0000 0.0000 0.0000 ( 36359 PWs)   bands (ev):

   -44.1346 -44.1345 -22.2602 -22.2602 -22.1672 -22.1672 -22.0649 -22.0647
    -7.8746  -7.5163  -7.1297  -6.8672  -6.3008  -5.4105  -4.9220  -4.8372
    -4.7862  -3.8330   0.3365   0.7497   0.7724   1.1215   1.4462   1.5312
     2.2523   2.3312   2.5386   2.7415   2.9431   3.0099   3.2557   3.4024
     3.7036   3.8014   3.9767   4.0699   4.2518   4.3378   4.3620   4.6778
     4.8418   5.4858   5.6367   5.8411   5.8439   5.9427   6.1449   6.8268
     6.9901   7.2717

          k = 0.0000 0.0000 0.1485 ( 36415 PWs)   bands (ev):

   -44.1346 -44.1345 -22.2602 -22.2602 -22.1672 -22.1672 -22.0648 -22.0648
    -7.8403  -7.6047  -7.0501  -6.8849  -6.2244  -5.6624  -4.8367  -4.7947
    -4.6415  -3.9484   0.4030   0.8073   0.9009   1.0049   1.0801   1.9110
     2.0586   2.2792   2.4645   2.8033   2.9284   3.1143   3.3938   3.4023
     3.7082   3.8640   3.9574   4.0726   4.1890   4.3586   4.3794   4.6794
     4.7700   4.9839   5.8106   5.9444   5.9474   6.0328   6.4997   6.6334
     6.8113   7.1910

          k = 0.0000 0.0000-0.2971 ( 36410 PWs)   bands (ev):

   -44.1345 -44.1345 -22.2602 -22.2602 -22.1672 -22.1672 -22.0648 -22.0648
    -7.7426  -7.7426  -6.9439  -6.9439  -5.9970  -5.9970  -4.8153  -4.8153
    -4.2506  -4.2506   0.6193   0.6193   0.9278   0.9278   1.3576   1.3576
     2.3557   2.3557   2.6361   2.6361   2.8819   2.8819   3.5045   3.5045
     3.8947   3.8947   4.0241   4.0241   4.3473   4.3473   4.3907   4.3907
     4.6982   4.6982   5.9311   5.9311   6.2237   6.2237   6.4269   6.4269
     6.9782   6.9782

          k = 0.2541 0.0645 0.0000 ( 36396 PWs)   bands (ev):

   -44.1342 -44.1342 -22.2583 -22.2583 -22.1769 -22.1769 -22.0637 -22.0636
    -7.7561  -7.4029  -7.0592  -6.8194  -6.2392  -5.3652  -4.9400  -4.7941
    -4.7423  -3.9873   0.4223   0.8752   0.9012   1.2382   1.2539   1.4149
     1.7744   1.8484   1.9889   2.5683   2.5934   3.1672   3.3060   3.7242
     3.7526   3.7539   3.8125   3.8282   4.0287   4.2473   4.2935   4.3055
     4.4912   4.5752   5.8233   5.9784   6.2158   6.5878   6.5881   6.7444
     7.0132   7.1788

          k = 0.2541 0.0645 0.1485 ( 36423 PWs)   bands (ev):

   -44.1342 -44.1342 -22.2583 -22.2583 -22.1769 -22.1769 -22.0637 -22.0636
    -7.7225  -7.4909  -6.9845  -6.8354  -6.1609  -5.6089  -4.8107  -4.7527
    -4.6633  -4.0792   0.4768   0.9286   0.9391   0.9593   1.1877   1.4258
     1.7723   2.0692   2.2361   2.5527   2.5778   2.9507   3.3430   3.3563
     3.5616   3.7754   3.9328   3.9522   4.0311   4.1558   4.3300   4.3455
     4.6830   4.8489   5.8443   5.9338   6.1684   6.2617   6.4115   6.7426
     7.2226   7.2959

          k = 0.2541 0.0645-0.2971 ( 36436 PWs)   bands (ev):

   -44.1342 -44.1342 -22.2583 -22.2583 -22.1769 -22.1769 -22.0636 -22.0636
    -7.6266  -7.6266  -6.8884  -6.8884  -5.9339  -5.9339  -4.7782  -4.7782
    -4.3291  -4.3291   0.6518   0.6518   1.0288   1.0288   1.1665   1.1665
     2.1038   2.1038   2.4758   2.4758   2.6696   2.6696   3.1931   3.1931
     3.6340   3.6340   3.9438   3.9438   4.1116   4.1116   4.3533   4.3533
     5.0262   5.0262   5.7801   5.7801   6.1422   6.1422   6.4467   6.4467
     7.4049   7.4049

          k = 0.5081 0.1290 0.0000 ( 36499 PWs)   bands (ev):

   -44.1333 -44.1333 -22.2536 -22.2536 -22.2003 -22.2003 -22.0609 -22.0608
    -7.4161  -7.0728  -6.8923  -6.6949  -6.0512  -5.2622  -5.0567  -4.6822
    -4.6339  -4.4474   0.3900   0.5997   0.6384   1.2001   1.2296   1.4041
     1.6519   1.6965   1.9580   2.1045   2.1651   2.2574   2.4339   3.3801
     3.4660   3.5086   3.5414   3.5898   3.7722   3.8725   3.9310   4.1804
     4.4114   5.0507   5.5959   6.0591   6.1101   6.5895   6.6084   6.9547
     7.4478   7.5641

          k = 0.5081 0.1290 0.1485 ( 36476 PWs)   bands (ev):

   -44.1333 -44.1333 -22.2536 -22.2536 -22.2003 -22.2003 -22.0609 -22.0608
    -7.3847  -7.1660  -6.8226  -6.7074  -5.9726  -5.4796  -4.8887  -4.6638
    -4.6468  -4.4749   0.3981   0.6273   0.7573   0.9988   1.2541   1.3616
     1.4317   1.5632   2.0182   2.0960   2.3493   2.4568   2.8064   3.4015
     3.4223   3.4668   3.5238   3.5921   3.7130   3.7515   3.8497   4.2327
     4.3154   4.5035   6.1458   6.1834   6.3272   6.5910   6.6520   6.8198
     7.2867   7.5102

          k = 0.5081 0.1290-0.2971 ( 36466 PWs)   bands (ev):

   -44.1333 -44.1333 -22.2536 -22.2536 -22.2003 -22.2003 -22.0609 -22.0609
    -7.2952  -7.2952  -6.7477  -6.7477  -5.7612  -5.7612  -4.7418  -4.7418
    -4.5565  -4.5565   0.5052   0.5052   1.0237   1.0237   1.0903   1.0903
     1.4214   1.4214   2.0581   2.0581   2.7043   2.7043   3.1629   3.1629
     3.4008   3.4008   3.5554   3.5554   3.7147   3.7147   3.8377   3.8377
     4.3133   4.3133   6.3877   6.3877   6.5605   6.5605   6.8357   6.8357
     7.1459   7.1459

          k = 0.7622 0.1934 0.0000 ( 36521 PWs)   bands (ev):

   -44.1324 -44.1324 -22.2488 -22.2488 -22.2236 -22.2236 -22.0581 -22.0580
    -6.9450  -6.7391  -6.5621  -6.4960  -5.7764  -5.3961  -5.2104  -5.1121
    -4.5578  -4.5214   0.0153   0.0217   0.4908   1.0046   1.0273   1.2718
     1.4830   1.6035   1.9714   2.0876   2.2449   2.3503   2.4187   2.7910
     2.8960   3.2654   3.3406   3.4531   3.5870   3.6752   3.7119   3.8026
     3.8367   4.5644   5.9218   6.3328   6.3910   6.8482   6.8600   6.9465
     7.3120   7.6207

          k = 0.7622 0.1934 0.1485 ( 36503 PWs)   bands (ev):

   -44.1324 -44.1324 -22.2488 -22.2488 -22.2236 -22.2236 -22.0581 -22.0581
    -6.9220  -6.7809  -6.5466  -6.5030  -5.7196  -5.4543  -5.1933  -5.1254
    -4.5492  -4.5241   0.0071   0.2020   0.3665   0.8980   1.0038   1.2313
     1.4955   1.6238   1.9089   2.0588   2.1288   2.6201   2.6899   2.8530
     2.8905   3.0829   3.2713   3.3894   3.5267   3.6227   3.6591   3.9328
     3.9744   4.5241   5.6979   6.3534   6.6573   6.7568   6.9249   6.9829
     7.0893   7.5881

          k = 0.7622 0.1934-0.2971 ( 36522 PWs)   bands (ev):

   -44.1324 -44.1324 -22.2488 -22.2488 -22.2236 -22.2236 -22.0581 -22.0581
    -6.8593  -6.8593  -6.5217  -6.5217  -5.5871  -5.5871  -5.1580  -5.1580
    -4.5338  -4.5338   0.1445   0.1445   0.5435   0.5435   1.0829   1.0829
     1.5666   1.5666   2.0140   2.0140   2.3812   2.3812   2.8207   2.8207
     2.9877   2.9877   3.3195   3.3195   3.5956   3.5956   3.8893   3.8893
     4.0881   4.0881   6.1609   6.1609   6.4543   6.4543   6.9853   6.9853
     7.4389   7.4389

          k =-1.0162-0.2579 0.0000 ( 36506 PWs)   bands (ev):

   -44.1320 -44.1320 -22.2467 -22.2467 -22.2334 -22.2334 -22.0569 -22.0569
    -6.7159  -6.6957  -6.0078  -5.9967  -5.9564  -5.9493  -5.3259  -5.3253
    -4.5006  -4.4749  -0.0264  -0.0040   0.2941   0.3156   1.0121   1.0212
     1.4684   1.6693   2.2327   2.3916   2.4015   2.4154   2.8048   2.8050
     2.8150   2.8386   3.2107   3.2593   3.3192   3.4096   3.4919   3.7041
     3.7934   4.0882   6.5665   6.5770   6.5891   6.6543   7.0324   7.1298
     7.1357   7.1622

          k =-1.0162-0.2579 0.1485 ( 36506 PWs)   bands (ev):

   -44.1320 -44.1320 -22.2467 -22.2467 -22.2334 -22.2334 -22.0569 -22.0569
    -6.7120  -6.6976  -6.0295  -6.0215  -5.9332  -5.9283  -5.3228  -5.3225
    -4.5001  -4.4820  -0.1237  -0.1168   0.5124   0.5196   1.0098   1.0263
     1.4641   1.5950   1.9956   2.0977   2.3732   2.3983   2.6985   2.7009
     2.9390   3.0341   3.0992   3.1935   3.5553   3.5721   3.6469   3.7538
     4.0281   4.1482   6.0393   6.0562   6.4943   6.5702   7.1143   7.1363
     7.3345   7.3862

          k =-1.0162-0.2579-0.2971 ( 36528 PWs)   bands (ev):

   -44.1320 -44.1320 -22.2467 -22.2467 -22.2334 -22.2334 -22.0569 -22.0569
    -6.7038  -6.7038  -6.0410  -6.0410  -5.9165  -5.9165  -5.3197  -5.3197
    -4.4944  -4.4944  -0.1836  -0.1836   0.7614   0.7614   0.9543   0.9543
     1.5259   1.5259   1.7710   1.7710   2.3731   2.3731   2.7689   2.7689
     2.8969   2.8969   3.1652   3.1652   3.6342   3.6342   3.8048   3.8048
     4.3659   4.3659   5.6003   5.6003   6.4466   6.4466   7.1468   7.1468
     7.4418   7.4419

          k = 0.5081 0.0000 0.0000 ( 36503 PWs)   bands (ev):

   -44.1333 -44.1333 -22.2536 -22.2536 -22.2003 -22.2003 -22.0609 -22.0608
    -7.4199  -7.0734  -6.8932  -6.6910  -6.0477  -5.2623  -5.0539  -4.6765
    -4.6407  -4.4469   0.3956   0.6146   0.6177   1.1954   1.2172   1.3764
     1.6510   1.6935   1.9441   2.1115   2.1726   2.2299   2.4332   3.3706
     3.4899   3.5046   3.5748   3.5807   3.7792   3.9156   3.9270   4.2177
     4.4134   5.0464   5.6017   6.0364   6.1460   6.5511   6.5568   6.9905
     7.4622   7.5794

          k = 0.5081 0.0000 0.1485 ( 36453 PWs)   bands (ev):

   -44.1333 -44.1333 -22.2536 -22.2536 -22.2003 -22.2003 -22.0609 -22.0608
    -7.3884  -7.1682  -6.8212  -6.7035  -5.9701  -5.4795  -4.8843  -4.6654
    -4.6464  -4.4761   0.4005   0.6220   0.7582   1.0020   1.2494   1.3579
     1.3988   1.5426   2.0156   2.1057   2.3783   2.4048   2.8028   3.3949
     3.4632   3.4809   3.4914   3.6014   3.7055   3.8229   3.8369   4.2735
     4.3265   4.4957   6.1390   6.1930   6.3456   6.5430   6.6150   6.8519
     7.3070   7.5193

          k = 0.5081 0.0000-0.2971 ( 36452 PWs)   bands (ev):

   -44.1333 -44.1333 -22.2536 -22.2536 -22.2003 -22.2003 -22.0609 -22.0609
    -7.2984  -7.2984  -6.7444  -6.7444  -5.7603  -5.7603  -4.7379  -4.7379
    -4.5594  -4.5594   0.5028   0.5028   1.0246   1.0246   1.0993   1.0993
     1.3836   1.3836   2.0605   2.0605   2.6952   2.6952   3.1537   3.1537
     3.4040   3.4040   3.5708   3.5708   3.7427   3.7427   3.8364   3.8364
     4.3337   4.3337   6.4034   6.4034   6.5244   6.5244   6.8532   6.8532
     7.1470   7.1470

          k = 0.7622 0.0645 0.0000 ( 36505 PWs)   bands (ev):

   -44.1324 -44.1324 -22.2488 -22.2488 -22.2236 -22.2236 -22.0581 -22.0580
    -6.9534  -6.7368  -6.5636  -6.4885  -5.7763  -5.3930  -5.2110  -5.1113
    -4.5483  -4.5318   0.0114   0.0317   0.5057   1.0158   1.0362   1.2858
     1.4461   1.5655   1.9412   2.1066   2.2609   2.3311   2.3567   2.7658
     2.8845   3.3141   3.3604   3.4908   3.5951   3.6342   3.7034   3.8283
     3.8525   4.5973   5.9193   6.3241   6.3870   6.8319   6.9053   6.9056
     7.3275   7.6376

          k = 0.7622 0.0645 0.1485 ( 36509 PWs)   bands (ev):

   -44.1324 -44.1324 -22.2488 -22.2488 -22.2236 -22.2236 -22.0581 -22.0581
    -6.9298  -6.7826  -6.5437  -6.4955  -5.7200  -5.4533  -5.1924  -5.1244
    -4.5426  -4.5315   0.0128   0.2015   0.3757   0.8935   1.0256   1.2464
     1.4629   1.6231   1.9389   1.9915   2.0568   2.6341   2.6781   2.8418
     2.8713   3.0862   3.3247   3.3966   3.5460   3.6119   3.6540   3.9604
     3.9955   4.5207   5.7231   6.3322   6.6691   6.7573   6.9327   6.9876
     7.0630   7.6076

          k = 0.7622 0.0645-0.2971 ( 36472 PWs)   bands (ev):

   -44.1324 -44.1324 -22.2488 -22.2488 -22.2236 -22.2236 -22.0581 -22.0581
    -6.8652  -6.8652  -6.5151  -6.5151  -5.5877  -5.5877  -5.1567  -5.1567
    -4.5341  -4.5341   0.1521   0.1521   0.5365   0.5365   1.1053   1.1053
     1.5603   1.5603   1.9633   1.9633   2.3596   2.3596   2.8227   2.8227
     2.9731   2.9731   3.3778   3.3778   3.5928   3.5928   3.8760   3.8760
     4.1059   4.1059   6.1866   6.1866   6.4548   6.4548   6.9532   6.9532
     7.4664   7.4664

          k = 1.0162 0.1290 0.0000 ( 36514 PWs)   bands (ev):

   -44.1320 -44.1320 -22.2467 -22.2467 -22.2334 -22.2334 -22.0569 -22.0569
    -6.7159  -6.6957  -6.0075  -5.9969  -5.9564  -5.9493  -5.3259  -5.3253
    -4.5006  -4.4749  -0.0322   0.0019   0.2902   0.3197   1.0055   1.0289
     1.4745   1.6600   2.2315   2.3925   2.3959   2.4151   2.7971   2.8062
     2.8077   2.8703   3.2286   3.2422   3.3003   3.3977   3.5341   3.6836
     3.7788   4.1021   6.5552   6.5719   6.6009   6.6611   7.0515   7.1309
     7.1378   7.1485

          k = 1.0162 0.1290 0.1485 ( 36524 PWs)   bands (ev):

   -44.1320 -44.1320 -22.2467 -22.2467 -22.2334 -22.2334 -22.0569 -22.0569
    -6.7120  -6.6976  -6.0294  -6.0217  -5.9332  -5.9283  -5.3229  -5.3224
    -4.5001  -4.4820  -0.1259  -0.1149   0.5137   0.5188   1.0116   1.0248
     1.4696   1.5896   2.0076   2.0810   2.3730   2.3935   2.6585   2.7476
     2.9506   3.0455   3.0904   3.1844   3.5277   3.6072   3.6470   3.7451
     4.0076   4.1676   6.0321   6.0671   6.4911   6.5728   7.1195   7.1355
     7.3423   7.3792

          k = 1.0162 0.1290-0.2971 ( 36516 PWs)   bands (ev):

   -44.1320 -44.1320 -22.2467 -22.2467 -22.2334 -22.2334 -22.0569 -22.0569
    -6.7038  -6.7038  -6.0410  -6.0410  -5.9165  -5.9165  -5.3197  -5.3197
    -4.4944  -4.4944  -0.1838  -0.1838   0.7619   0.7619   0.9542   0.9542
     1.5269   1.5269   1.7718   1.7718   2.3644   2.3644   2.7528   2.7528
     2.9390   2.9390   3.1451   3.1451   3.6373   3.6373   3.8017   3.8017
     4.3664   4.3664   5.6027   5.6027   6.4460   6.4460   7.1483   7.1483
     7.4426   7.4426

          k =-0.7622-0.3224 0.0000 ( 36511 PWs)   bands (ev):

   -44.1324 -44.1324 -22.2488 -22.2488 -22.2236 -22.2236 -22.0581 -22.0580
    -6.9322  -6.7434  -6.5601  -6.5066  -5.7766  -5.4005  -5.2094  -5.1131
    -4.5653  -4.5126   0.0078   0.0210   0.4701   0.9722   1.0435   1.2544
     1.5042   1.6669   2.0333   2.0640   2.2604   2.3760   2.4489   2.8273
     2.9086   3.2087   3.3247   3.4515   3.5632   3.6483   3.6668   3.7958
     3.8810   4.5087   5.9254   6.3252   6.4279   6.7660   6.9033   7.0127
     7.2804   7.5989

          k =-0.7622-0.3224 0.1485 ( 36492 PWs)   bands (ev):

   -44.1324 -44.1324 -22.2488 -22.2488 -22.2236 -22.2236 -22.0581 -22.0581
    -6.9100  -6.7790  -6.5508  -6.5138  -5.7191  -5.4558  -5.1945  -5.1267
    -4.5544  -4.5179  -0.0015   0.2041   0.3530   0.8975   0.9885   1.2109
     1.5307   1.6285   1.8909   2.1606   2.2099   2.6064   2.6883   2.8713
     2.9077   3.1004   3.2092   3.3730   3.4754   3.6032   3.7057   3.8811
     3.9566   4.5273   5.6644   6.3874   6.6300   6.7541   6.8941   7.0265
     7.1178   7.5496

          k =-0.7622-0.3224-0.2971 ( 36508 PWs)   bands (ev):

   -44.1324 -44.1324 -22.2488 -22.2488 -22.2236 -22.2236 -22.0581 -22.0581
    -6.8506  -6.8506  -6.5316  -6.5316  -5.5863  -5.5863  -5.1600  -5.1600
    -4.5334  -4.5334   0.1340   0.1340   0.5528   0.5528   1.0564   1.0564
     1.5749   1.5749   2.0713   2.0713   2.4305   2.4305   2.8187   2.8187
     3.0092   3.0092   3.2365   3.2365   3.5938   3.5938   3.8901   3.8901
     4.0771   4.0771   6.1276   6.1276   6.4523   6.4523   7.0382   7.0383
     7.3917   7.3917

          k =-0.5081-0.2579 0.0000 ( 36480 PWs)   bands (ev):

   -44.1333 -44.1333 -22.2536 -22.2536 -22.2003 -22.2003 -22.0609 -22.0608
    -7.4065  -7.0712  -6.8906  -6.7038  -6.0599  -5.2619  -5.0636  -4.6907
    -4.6225  -4.4485   0.3771   0.5963   0.6512   1.2110   1.2694   1.4722
     1.6519   1.7127   1.9931   2.0871   2.1600   2.3029   2.4330   3.3915
     3.4012   3.4690   3.5494   3.5825   3.7504   3.7702   3.9509   4.1028
     4.4024   5.0591   5.5842   6.0171   6.1225   6.6877   6.7299   6.8696
     7.4012   7.5299

          k =-0.5081-0.2579 0.1485 ( 36485 PWs)   bands (ev):

   -44.1333 -44.1333 -22.2536 -22.2536 -22.2003 -22.2003 -22.0609 -22.0608
    -7.3754  -7.1606  -6.8263  -6.7164  -5.9787  -5.4800  -4.8991  -4.6603
    -4.6477  -4.4722   0.3927   0.6392   0.7537   0.9914   1.2712   1.3713
     1.5111   1.6225   2.0164   2.0794   2.3331   2.5218   2.8147   3.3309
     3.4199   3.4611   3.5517   3.5716   3.6150   3.7363   3.8510   4.1517
     4.2773   4.5176   6.1328   6.1840   6.2893   6.6932   6.7466   6.7580
     7.2314   7.4914

          k =-0.5081-0.2579-0.2971 ( 36478 PWs)   bands (ev):

   -44.1333 -44.1333 -22.2536 -22.2536 -22.2003 -22.2003 -22.0609 -22.0609
    -7.2871  -7.2871  -6.7558  -6.7558  -5.7634  -5.7634  -4.7509  -4.7509
    -4.5501  -4.5501   0.5107   0.5107   1.0204   1.0204   1.0749   1.0749
     1.5159   1.5159   2.0482   2.0482   2.7308   2.7308   3.1739   3.1739
     3.3850   3.3850   3.4957   3.4957   3.6875   3.6875   3.8370   3.8370
     4.2646   4.2646   6.3515   6.3515   6.6371   6.6371   6.7981   6.7981
     7.1507   7.1507

          k =-0.2541-0.1934 0.0000 ( 36410 PWs)   bands (ev):

   -44.1342 -44.1342 -22.2583 -22.2583 -22.1769 -22.1769 -22.0637 -22.0636
    -7.7495  -7.4018  -7.0535  -6.8258  -6.2522  -5.3670  -4.9482  -4.8018
    -4.7304  -3.9883   0.4479   0.8823   0.9705   1.2501   1.2665   1.4491
     1.7984   1.8729   1.9902   2.5356   2.5833   3.2301   3.2763   3.6599
     3.6909   3.7290   3.7818   3.8639   3.8889   4.1961   4.2673   4.2894
     4.3861   4.6000   5.8785   6.0074   6.2816   6.5855   6.6350   6.7610
     6.9950   7.0979

          k =-0.2541-0.1934 0.1485 ( 36427 PWs)   bands (ev):

   -44.1342 -44.1342 -22.2583 -22.2583 -22.1769 -22.1769 -22.0637 -22.0636
    -7.7161  -7.4874  -6.9834  -6.8415  -6.1711  -5.6111  -4.8288  -4.7459
    -4.6570  -4.0793   0.5005   0.9321   0.9570   1.0362   1.2214   1.4405
     1.7791   2.0722   2.2646   2.5325   2.5639   2.9352   3.3645   3.3967
     3.5710   3.6723   3.7926   3.8994   3.9849   4.1321   4.2869   4.2970
     4.6752   4.8462   5.8335   5.9572   6.1623   6.3313   6.4800   6.7441
     7.1824   7.2851

          k =-0.2541-0.1934-0.2971 ( 36422 PWs)   bands (ev):

   -44.1342 -44.1342 -22.2583 -22.2583 -22.1769 -22.1769 -22.0636 -22.0636
    -7.6211  -7.6211  -6.8924  -6.8924  -5.9392  -5.9392  -4.7829  -4.7829
    -4.3269  -4.3269   0.6706   0.6706   1.0865   1.0865   1.1770   1.1770
     2.1062   2.1062   2.4705   2.4705   2.6688   2.6688   3.2108   3.2108
     3.6150   3.6150   3.8223   3.8223   4.0912   4.0912   4.3001   4.3001
     5.0368   5.0368   5.7434   5.7434   6.1565   6.1565   6.5184   6.5184
     7.3874   7.3874

          k = 0.0000-0.1290 0.0000 ( 36417 PWs)   bands (ev):

   -44.1346 -44.1345 -22.2602 -22.2602 -22.1672 -22.1672 -22.0649 -22.0647
    -7.8711  -7.5157  -7.1258  -6.8706  -6.3090  -5.4120  -4.9271  -4.8430
    -4.7776  -3.8335   0.3553   0.7540   0.8135   1.1309   1.4573   1.5594
     2.2532   2.3312   2.5378   2.7485   2.9440   3.0146   3.2937   3.3928
     3.6540   3.7903   3.8579   4.0130   4.2519   4.2833   4.3142   4.6774
     4.8307   5.4527   5.6596   5.8487   5.8643   5.9915   6.1934   6.8232
     6.9903   7.2360

          k = 0.0000-0.1290 0.1485 ( 36419 PWs)   bands (ev):

   -44.1346 -44.1345 -22.2602 -22.2602 -22.1672 -22.1672 -22.0648 -22.0648
    -7.8369  -7.6028  -7.0487  -6.8880  -6.2311  -5.6642  -4.8471  -4.7900
    -4.6387  -3.9485   0.4211   0.8491   0.9101   1.0096   1.1003   1.9166
     2.0758   2.2801   2.4649   2.8083   2.9298   3.1225   3.3698   3.4241
     3.6988   3.8471   3.8538   3.9929   4.1863   4.3056   4.3342   4.6788
     4.7632   4.9753   5.8227   5.9626   5.9905   6.0380   6.5202   6.6307
     6.8123   7.1721

          k = 0.0000-0.1290-0.2971 ( 36464 PWs)   bands (ev):

   -44.1346 -44.1346 -22.2602 -22.2602 -22.1672 -22.1672 -22.0648 -22.0648
    -7.7397  -7.7397  -6.9455  -6.9455  -6.0007  -6.0007  -4.8176  -4.8176
    -4.2497  -4.2497   0.6397   0.6397   0.9516   0.9516   1.3645   1.3645
     2.3565   2.3565   2.6473   2.6473   2.8848   2.8848   3.4935   3.4935
     3.8384   3.8384   4.0167   4.0167   4.2513   4.2513   4.4058   4.4058
     4.6961   4.6961   5.9461   5.9461   6.2396   6.2396   6.4295   6.4295
     6.9755   6.9755

          k = 1.0162 0.0000 0.0000 ( 36499 PWs)   bands (ev):

   -44.1320 -44.1320 -22.2467 -22.2467 -22.2334 -22.2334 -22.0569 -22.0569
    -6.7159  -6.6957  -6.0073  -5.9971  -5.9564  -5.9492  -5.3259  -5.3253
    -4.5006  -4.4749  -0.0364   0.0063   0.2871   0.3230   1.0020   1.0336
     1.4813   1.6498   2.2302   2.3912   2.3936   2.4146   2.7930   2.8044
     2.8067   2.8942   3.2508   3.2515   3.2582   3.3811   3.5929   3.6436
     3.7659   4.1147   6.5481   6.5674   6.6085   6.6674   7.0809   7.1248
     7.1320   7.1399

          k = 1.0162 0.0000 0.1485 ( 36485 PWs)   bands (ev):

   -44.1320 -44.1320 -22.2467 -22.2467 -22.2334 -22.2334 -22.0569 -22.0569
    -6.7120  -6.6976  -6.0293  -6.0218  -5.9331  -5.9284  -5.3229  -5.3224
    -4.5001  -4.4820  -0.1276  -0.1136   0.5162   0.5169   1.0143   1.0225
     1.4757   1.5836   2.0310   2.0529   2.3787   2.3831   2.6450   2.7653
     2.9694   3.0648   3.0699   3.1744   3.5157   3.6186   3.6593   3.7324
     3.9911   4.1830   6.0281   6.0746   6.4881   6.5752   7.1267   7.1326
     7.3583   7.3639

          k = 1.0162 0.0000-0.2971 ( 36514 PWs)   bands (ev):

   -44.1320 -44.1320 -22.2467 -22.2467 -22.2334 -22.2334 -22.0569 -22.0569
    -6.7038  -6.7038  -6.0410  -6.0410  -5.9165  -5.9165  -5.3197  -5.3197
    -4.4944  -4.4944  -0.1839  -0.1839   0.7623   0.7623   0.9541   0.9541
     1.5279   1.5279   1.7726   1.7726   2.3559   2.3559   2.7417   2.7417
     2.9841   2.9841   3.1169   3.1169   3.6405   3.6405   3.7985   3.7985
     4.3668   4.3668   5.6051   5.6051   6.4454   6.4454   7.1498   7.1498
     7.4434   7.4434

          k = 1.2703 0.0645 0.0000 ( 36468 PWs)   bands (ev):

   -44.1324 -44.1324 -22.2488 -22.2488 -22.2236 -22.2236 -22.0581 -22.0580
    -6.9223  -6.7474  -6.5587  -6.5140  -5.7767  -5.4036  -5.2088  -5.1139
    -4.5692  -4.5078  -0.0018   0.0251   0.4556   0.9549   1.0548   1.2430
     1.5082   1.7132   2.0489   2.0955   2.2863   2.3939   2.4335   2.8549
     2.9131   3.1629   3.3523   3.4944   3.5161   3.5762   3.6538   3.7457
     3.9646   4.4581   5.9280   6.3201   6.4627   6.7067   6.9369   7.0722
     7.2444   7.5957

          k = 1.2703 0.0645 0.1485 ( 36490 PWs)   bands (ev):

   -44.1324 -44.1324 -22.2488 -22.2488 -22.2236 -22.2236 -22.0581 -22.0581
    -6.9008  -6.7782  -6.5538  -6.5216  -5.7187  -5.4568  -5.1953  -5.1277
    -4.5570  -4.5146  -0.0078   0.2065   0.3428   0.8918   0.9871   1.1976
     1.5484   1.6355   1.8847   2.2342   2.2720   2.5945   2.6748   2.8806
     2.9213   3.1284   3.1692   3.3521   3.4569   3.5555   3.7595   3.8252
     3.9529   4.5284   5.6423   6.4165   6.6006   6.7516   6.8780   7.0755
     7.1305   7.5138

          k = 1.2703 0.0645-0.2971 ( 36480 PWs)   bands (ev):

   -44.1324 -44.1324 -22.2488 -22.2488 -22.2236 -22.2236 -22.0581 -22.0581
    -6.8441  -6.8441  -6.5388  -6.5388  -5.5857  -5.5857  -5.1614  -5.1614
    -4.5332  -4.5332   0.1266   0.1266   0.5591   0.5591   1.0407   1.0407
     1.5810   1.5810   2.0999   2.0999   2.4832   2.4832   2.8202   2.8202
     3.0248   3.0248   3.1711   3.1711   3.5900   3.5900   3.8762   3.8762
     4.0815   4.0815   6.1059   6.1059   6.4502   6.4502   7.0838   7.0838
     7.3495   7.3495

          k =-0.5081-0.3869 0.0000 ( 36463 PWs)   bands (ev):

   -44.1333 -44.1333 -22.2536 -22.2536 -22.2003 -22.2003 -22.0609 -22.0608
    -7.3965  -7.0696  -6.8900  -6.7120  -6.0688  -5.2616  -5.0705  -4.6960
    -4.6143  -4.4497   0.3647   0.6062   0.6451   1.2215   1.3222   1.5527
     1.6545   1.7211   2.0311   2.0700   2.1855   2.3105   2.4278   3.2772
     3.4249   3.4687   3.4925   3.6369   3.6967   3.7414   3.8699   4.0992
     4.3901   5.0642   5.5748   5.9262   6.1888   6.7844   6.7978   6.8544
     7.3269   7.5135

          k =-0.5081-0.3869 0.1485 ( 36477 PWs)   bands (ev):

   -44.1333 -44.1333 -22.2536 -22.2536 -22.2003 -22.2003 -22.0609 -22.0608
    -7.3658  -7.1552  -6.8310  -6.7250  -5.9849  -5.4802  -4.9090  -4.6576
    -4.6483  -4.4696   0.3876   0.6510   0.7468   0.9847   1.2929   1.3812
     1.6038   1.6939   2.0037   2.0645   2.3362   2.5559   2.8241   3.2285
     3.4220   3.4561   3.4964   3.5696   3.6109   3.7285   3.8235   4.1148
     4.2196   4.5293   6.0827   6.2096   6.2667   6.6674   6.8002   6.8831
     7.1582   7.4867

          k =-0.5081-0.3869-0.2971 ( 36492 PWs)   bands (ev):

   -44.1333 -44.1333 -22.2536 -22.2536 -22.2003 -22.2003 -22.0609 -22.0609
    -7.2787  -7.2787  -6.7643  -6.7643  -5.7654  -5.7654  -4.7595  -4.7595
    -4.5442  -4.5442   0.5159   0.5159   1.0161   1.0161   1.0646   1.0646
     1.6252   1.6252   2.0264   2.0264   2.7669   2.7669   3.1418   3.1418
     3.3616   3.3616   3.4551   3.4551   3.6830   3.6830   3.8311   3.8311
     4.2188   4.2188   6.3170   6.3170   6.6760   6.6760   6.7872   6.7872
     7.1716   7.1716

          k =-0.2541-0.3224 0.0000 ( 36485 PWs)   bands (ev):

   -44.1342 -44.1342 -22.2583 -22.2583 -22.1769 -22.1769 -22.0637 -22.0636
    -7.7399  -7.4002  -7.0461  -6.8339  -6.2711  -5.3693  -4.9604  -4.8057
    -4.7198  -3.9896   0.4736   0.8938   1.0910   1.2423   1.3151   1.5204
     1.8345   1.9095   1.9911   2.4628   2.5396   3.2401   3.3363   3.4929
     3.6025   3.6520   3.7466   3.8176   3.9287   4.1452   4.1505   4.2562
     4.3342   4.6081   5.9657   6.0349   6.3428   6.5838   6.7047   6.7853
     6.9207   7.0271

          k =-0.2541-0.3224 0.1485 ( 36445 PWs)   bands (ev):

   -44.1342 -44.1342 -22.2583 -22.2583 -22.1769 -22.1769 -22.0637 -22.0636
    -7.7069  -7.4822  -6.9824  -6.8495  -6.1858  -5.6142  -4.8493  -4.7405
    -4.6492  -4.0792   0.5233   0.9415   0.9764   1.1656   1.2949   1.4641
     1.7963   2.0758   2.3075   2.4662   2.5271   2.9232   3.3866   3.4407
     3.4900   3.5440   3.6664   3.8911   3.9150   4.0829   4.2013   4.2573
     4.6984   4.8254   5.8220   5.9902   6.1598   6.3663   6.5774   6.7457
     7.1423   7.2673

          k =-0.2541-0.3224-0.2971 ( 36442 PWs)   bands (ev):

   -44.1342 -44.1342 -22.2583 -22.2583 -22.1769 -22.1769 -22.0636 -22.0636
    -7.6131  -7.6131  -6.8983  -6.8983  -5.9465  -5.9465  -4.7896  -4.7896
    -4.3238  -4.3238   0.6871   0.6871   1.1628   1.1628   1.2273   1.2273
     2.1122   2.1122   2.4440   2.4440   2.6638   2.6638   3.2378   3.2378
     3.4696   3.4696   3.7961   3.7961   4.0432   4.0432   4.2371   4.2371
     5.0527   5.0527   5.7030   5.7030   6.1457   6.1457   6.6142   6.6142
     7.3661   7.3661

          k = 0.0000-0.2579 0.0000 ( 36445 PWs)   bands (ev):

   -44.1346 -44.1346 -22.2602 -22.2602 -22.1672 -22.1672 -22.0649 -22.0647
    -7.8626  -7.5142  -7.1165  -6.8782  -6.3293  -5.4155  -4.9412  -4.8472
    -4.7648  -3.8349   0.3921   0.7651   0.9245   1.1794   1.4833   1.6212
     2.2551   2.3327   2.5357   2.7663   2.9457   3.0354   3.3176   3.3982
     3.4459   3.6485   3.7633   3.9583   4.1549   4.1790   4.2522   4.6765
     4.8042   5.4057   5.7165   5.8671   5.9167   6.0673   6.2812   6.7878
     6.9906   7.1719

          k = 0.0000-0.2579 0.1485 ( 36452 PWs)   bands (ev):

   -44.1346 -44.1346 -22.2602 -22.2602 -22.1672 -22.1672 -22.0648 -22.0648
    -7.8287  -7.5982  -7.0455  -6.8951  -6.2475  -5.6684  -4.8669  -4.7831
    -4.6328  -3.9487   0.4545   0.9254   0.9549   1.0579   1.1492   1.9319
     2.1160   2.2821   2.4659   2.8211   2.9330   3.1231   3.3062   3.3904
     3.6316   3.6590   3.8289   3.9117   4.1794   4.1810   4.2131   4.6774
     4.7471   4.9657   5.8591   6.0090   6.0462   6.0508   6.5556   6.6094
     6.8145   7.1292

          k = 0.0000-0.2579-0.2971 ( 36454 PWs)   bands (ev):

   -44.1346 -44.1346 -22.2602 -22.2602 -22.1672 -22.1672 -22.0648 -22.0648
    -7.7326  -7.7326  -6.9497  -6.9497  -6.0095  -6.0095  -4.8233  -4.8233
    -4.2475  -4.2475   0.6735   0.6735   1.0369   1.0369   1.3820   1.3820
     2.3586   2.3586   2.6723   2.6723   2.8921   2.8921   3.3724   3.3724
     3.7746   3.7746   3.9985   3.9985   4.1172   4.1172   4.3863   4.3863
     4.6915   4.6915   5.9608   5.9608   6.2745   6.2745   6.4360   6.4360
     6.9566   6.9566

          k = 1.5243 0.0000 0.0000 ( 36439 PWs)   bands (ev):

   -44.1333 -44.1333 -22.2536 -22.2536 -22.2003 -22.2003 -22.0609 -22.0608
    -7.3922  -7.0689  -6.8901  -6.7150  -6.0726  -5.2615  -5.0734  -4.6976
    -4.6114  -4.4501   0.3597   0.6222   0.6291   1.2257   1.3473   1.6004
     1.6794   1.6837   2.0479   2.0686   2.2344   2.2718   2.4241   3.2332
     3.4199   3.4380   3.5012   3.6984   3.7190   3.7222   3.7540   4.1182
     4.3844   5.0650   5.5714   5.8880   6.2190   6.7483   6.8505   6.9103
     7.2815   7.5473

          k = 1.5243 0.0000 0.1485 ( 36476 PWs)   bands (ev):

   -44.1333 -44.1333 -22.2536 -22.2536 -22.2003 -22.2003 -22.0609 -22.0608
    -7.3617  -7.1529  -6.8332  -6.7285  -5.9875  -5.4803  -4.9131  -4.6568
    -4.6482  -4.4685   0.3855   0.6562   0.7425   0.9821   1.3026   1.3852
     1.6573   1.7179   2.0063   2.0460   2.3452   2.5575   2.8289   3.1870
     3.3832   3.4619   3.4797   3.5936   3.6375   3.7201   3.7750   4.1534
     4.1581   4.5339   6.0569   6.2228   6.2612   6.6375   6.8416   6.9514
     7.1111   7.5006

          k = 1.5243 0.0000-0.2971 ( 36508 PWs)   bands (ev):

   -44.1333 -44.1333 -22.2536 -22.2536 -22.2003 -22.2003 -22.0609 -22.0609
    -7.2752  -7.2752  -6.7679  -6.7679  -5.7663  -5.7663  -4.7630  -4.7630
    -4.5419  -4.5419   0.5179   0.5179   1.0142   1.0142   1.0611   1.0611
     1.6801   1.6801   2.0095   2.0095   2.7871   2.7871   3.1044   3.1044
     3.3612   3.3612   3.4472   3.4472   3.6813   3.6813   3.8264   3.8264
     4.2017   4.2017   6.3031   6.3031   6.6728   6.6728   6.7974   6.7974
     7.1875   7.1875

          k =-0.2541-0.4514 0.0000 ( 36444 PWs)   bands (ev):

   -44.1342 -44.1342 -22.2583 -22.2583 -22.1769 -22.1769 -22.0637 -22.0636
    -7.7330  -7.3990  -7.0415  -6.8387  -6.2850  -5.3709  -4.9693  -4.8059
    -4.7146  -3.9906   0.4844   0.9031   1.2107   1.2351   1.3334   1.6056
     1.8616   1.9479   1.9879   2.3828   2.4657   3.2209   3.3515   3.4221
     3.4983   3.6904   3.7662   3.8045   3.8524   4.1043   4.1163   4.1960
     4.3268   4.6133   6.0384   6.0485   6.3706   6.5820   6.7573   6.7990
     6.8331   7.0047

          k =-0.2541-0.4514 0.1485 ( 36461 PWs)   bands (ev):

   -44.1342 -44.1342 -22.2583 -22.2583 -22.1769 -22.1769 -22.0637 -22.0636
    -7.7002  -7.4786  -6.9823  -6.8545  -6.1963  -5.6162  -4.8619  -4.7379
    -4.6443  -4.0792   0.5323   0.9545   0.9804   1.2949   1.3475   1.4914
     1.8210   2.0771   2.3510   2.3910   2.4497   2.9267   3.3212   3.3541
     3.4577   3.5584   3.7276   3.8462   3.8821   3.9649   4.1921   4.2258
     4.7419   4.7880   5.8157   6.0144   6.1663   6.3541   6.6447   6.7411
     7.1281   7.2530

          k =-0.2541-0.4514-0.2971 ( 36490 PWs)   bands (ev):

   -44.1342 -44.1342 -22.2583 -22.2583 -22.1769 -22.1769 -22.0636 -22.0636
    -7.6073  -7.6073  -6.9026  -6.9026  -5.9515  -5.9515  -4.7943  -4.7943
    -4.3216  -4.3216   0.6932   0.6932   1.1788   1.1788   1.3287   1.3287
     2.1206   2.1206   2.3929   2.3929   2.6619   2.6619   3.2398   3.2398
     3.3637   3.3637   3.8274   3.8274   3.9819   3.9819   4.2063   4.2063
     5.0646   5.0646   5.6785   5.6785   6.1285   6.1285   6.6725   6.6725
     7.3543   7.3543

          k = 0.0000-0.3869 0.0000 ( 36477 PWs)   bands (ev):

   -44.1346 -44.1346 -22.2602 -22.2602 -22.1672 -22.1672 -22.0649 -22.0647
    -7.8538  -7.5128  -7.1079  -6.8846  -6.3506  -5.4188  -4.9563  -4.8452
    -4.7573  -3.8363   0.4153   0.7770   1.0758   1.2413   1.5076   1.6910
     2.2571   2.3361   2.5336   2.7854   2.9468   3.0712   3.1195   3.1590
     3.5504   3.5919   3.7357   3.9486   3.9918   4.0226   4.2522   4.6758
     4.7781   5.3788   5.7749   5.8856   5.9810   6.1141   6.3403   6.7066
     6.9907   7.1399

          k = 0.0000-0.3869 0.1485 ( 36452 PWs)   bands (ev):

   -44.1346 -44.1346 -22.2602 -22.2602 -22.1672 -22.1672 -22.0648 -22.0648
    -7.8203  -7.5936  -7.0429  -6.9015  -6.2642  -5.6724  -4.8835  -4.7789
    -4.6275  -3.9489   0.4730   0.9529   1.0225   1.1641   1.2296   1.9500
     2.1563   2.2841   2.4668   2.8351   2.9359   3.0210   3.1108   3.3307
     3.5551   3.6957   3.8035   3.9146   4.0452   4.0676   4.1720   4.6764
     4.7315   4.9630   5.9053   6.0471   6.0640   6.0712   6.5565   6.5820
     6.8167   7.0960

          k = 0.0000-0.3869-0.2971 ( 36454 PWs)   bands (ev):

   -44.1346 -44.1346 -22.2602 -22.2602 -22.1672 -22.1672 -22.0648 -22.0648
    -7.7253  -7.7253  -6.9540  -6.9540  -6.0182  -6.0182  -4.8290  -4.8290
    -4.2453  -4.2453   0.6890   0.6890   1.1666   1.1666   1.4007   1.4007
     2.3606   2.3606   2.6832   2.6832   2.8997   2.8997   3.1567   3.1567
     3.8105   3.8105   3.9798   3.9798   3.9987   3.9987   4.3640   4.3640
     4.6872   4.6872   5.9579   5.9579   6.3025   6.3025   6.4427   6.4427
     6.9273   6.9273

          k =-2.0325 0.0000 0.0000 ( 36452 PWs)   bands (ev):

   -44.1346 -44.1346 -22.2602 -22.2602 -22.1672 -22.1672 -22.0649 -22.0647
    -7.8501  -7.5122  -7.1046  -6.8868  -6.3597  -5.4202  -4.9625  -4.8434
    -4.7552  -3.8368   0.4209   0.7821   1.1962   1.2225   1.5172   1.7336
     2.2579   2.3386   2.5328   2.7938   2.9470   2.9918   3.0434   3.0915
     3.5953   3.6799   3.7241   3.8476   3.9461   3.9643   4.2522   4.6756
     4.7674   5.3707   5.7990   5.8933   6.0152   6.1285   6.3587   6.6578
     6.9907   7.1340

          k =-2.0325 0.0000 0.1485 ( 36456 PWs)   bands (ev):

   -44.1346 -44.1346 -22.2602 -22.2602 -22.1672 -22.1672 -22.0648 -22.0648
    -7.8167  -7.5917  -7.0421  -6.9038  -6.2712  -5.6741  -4.8899  -4.7775
    -4.6254  -3.9489   0.4768   0.9623   1.0422   1.2294   1.2767   1.9583
     2.1755   2.2850   2.4671   2.8413   2.9290   2.9369   2.9923   3.3474
     3.5339   3.7679   3.7929   3.9182   3.9543   4.0062   4.1687   4.6761
     4.7251   4.9629   5.9292   6.0629   6.0696   6.0726   6.5320   6.5840
     6.8177   7.0857

          k =-2.0325 0.0000-0.2971 ( 36460 PWs)   bands (ev):

   -44.1346 -44.1346 -22.2602 -22.2602 -22.1672 -22.1672 -22.0648 -22.0648
    -7.7222  -7.7222  -6.9559  -6.9559  -6.0218  -6.0218  -4.8314  -4.8314
    -4.2444  -4.2444   0.6916   0.6916   1.2360   1.2360   1.4087   1.4087
     2.3615   2.3615   2.6723   2.6723   2.9029   2.9029   3.0651   3.0651
     3.8575   3.8575   3.9286   3.9286   3.9719   3.9719   4.3559   4.3559
     4.6855   4.6855   5.9533   5.9533   6.3119   6.3119   6.4456   6.4456
     6.9139   6.9139

     the Fermi energy is     5.5043 ev

     WARNING: integrated charge=    83.99784143, expected=    84.00000000

!    total energy              =   -4240.95495404 Ry

     total all-electron energy =   -150287.648649 Ry
     estimated scf accuracy    <          4.2E-12 Ry
     smearing contrib. (-TS)   =       0.00001145 Ry
     internal energy E=F+TS    =   -4240.95496548 Ry

     The total energy is F=E-TS. E is the sum of the following terms:
     one-electron contribution =    -166.96503456 Ry
     hartree contribution      =     116.95805635 Ry
     xc contribution           =    -201.50241517 Ry
     ewald contribution        =    -221.92507303 Ry
     one-center paw contrib.   =   -3767.52049909 Ry

     convergence has been achieved in  18 iterations

     Forces acting on atoms (cartesian axes, Ry/au):

     atom    1 type  1   force =    -0.00000000    0.00037550    0.00000000
     atom    2 type  1   force =     0.00000000   -0.00037550    0.00000000
     atom    3 type  2   force =     0.00000000    0.00005571    0.00000000
     atom    4 type  2   force =     0.00000000   -0.00005571    0.00000000
     atom    5 type  2   force =     0.00000000   -0.00007873    0.00011458
     atom    6 type  2   force =     0.00000000    0.00007873   -0.00011458
     atom    7 type  2   force =     0.00000000   -0.00007873   -0.00011458
     atom    8 type  2   force =     0.00000000    0.00007873    0.00011458
     atom    9 type  2   force =     0.00000000   -0.00060447   -0.00069254
     atom   10 type  2   force =     0.00000000    0.00060447    0.00069254
     atom   11 type  2   force =     0.00000000   -0.00060447    0.00069254
     atom   12 type  2   force =     0.00000000    0.00060447   -0.00069254

     Total force =     0.001935     Total SCF correction =     0.000002


     Computing stress (Cartesian axis) and pressure

          total   stress  (Ry/bohr**3)                   (kbar)     P=        0.05
   0.00000057  -0.00000000   0.00000000            0.08       -0.00        0.00
  -0.00000000   0.00000023   0.00000000           -0.00        0.03        0.00
   0.00000000   0.00000000   0.00000015            0.00        0.00        0.02

 
     init_run     :     25.19s CPU     25.76s WALL (       1 calls)
     electrons    :    951.68s CPU    961.85s WALL (       1 calls)
     forces       :      6.68s CPU      6.88s WALL (       1 calls)
     stress       :     42.63s CPU     43.22s WALL (       1 calls)

     Called by init_run:
     wfcinit      :     20.39s CPU     20.61s WALL (       1 calls)
     potinit      :      1.50s CPU      1.55s WALL (       1 calls)
     hinit0       :      1.73s CPU      1.79s WALL (       1 calls)

     Called by electrons:
     c_bands      :    792.10s CPU    795.05s WALL (      19 calls)
     sum_band     :    133.97s CPU    137.75s WALL (      19 calls)
     v_of_rho     :      5.64s CPU      5.92s WALL (      19 calls)
     newd         :     14.31s CPU     17.69s WALL (      19 calls)
     PAW_pot      :      6.02s CPU      6.02s WALL (      19 calls)
     mix_rho      :      0.80s CPU      0.81s WALL (      19 calls)

     Called by c_bands:
     init_us_2    :     11.62s CPU     11.65s WALL (    2583 calls)
     cegterg      :    713.76s CPU    716.49s WALL (    1197 calls)

     Called by *egterg:
     cdiaghg      :     26.98s CPU     27.05s WALL (    8050 calls)
     h_psi        :    556.10s CPU    558.78s WALL (    8176 calls)
     s_psi        :     44.53s CPU     44.58s WALL (    8176 calls)
     g_psi        :      1.91s CPU      1.92s WALL (    6916 calls)

     Called by h_psi:
     h_psi:calbec :     38.56s CPU     38.62s WALL (    8176 calls)
     vloc_psi     :    469.92s CPU    472.39s WALL (    8176 calls)
     add_vuspsi   :     44.53s CPU     44.59s WALL (    8176 calls)

     General routines
     calbec       :     51.27s CPU     51.36s WALL (    9688 calls)
     fft          :      3.37s CPU      3.50s WALL (     271 calls)
     ffts         :      0.08s CPU      0.08s WALL (      38 calls)
     fftw         :    429.66s CPU    431.86s WALL (  422586 calls)
     interpolate  :      0.31s CPU      0.31s WALL (      19 calls)
 
     Parallel routines
 
     PWSCF        :  17m 6.45s CPU  17m18.03s WALL

 
   This run was terminated on:  15:30:18  19Nov2021            

=------------------------------------------------------------------------------=
   JOB DONE.
=------------------------------------------------------------------------------=
