
     Program PWSCF v.6.8 starts on 19Nov2021 at 15:15:28 

     This program is part of the open-source Quantum ESPRESSO suite
     for quantum simulation of materials; please cite
         "P. Giannozzi et al., J. Phys.:Condens. Matter 21 395502 (2009);
         "P. Giannozzi et al., J. Phys.:Condens. Matter 29 465901 (2017);
         "P. Giannozzi et al., J. Chem. Phys. 152 154105 (2020);
          URL http://www.quantum-espresso.org", 
     in publications or presentations arising from this work. More details at
     http://www.quantum-espresso.org/quote

     Parallel version (MPI), running on    10 processors

     MPI processes distributed on     1 nodes
     R & G space division:  proc/nbgrp/npool/nimage =      10
     70613 MiB available memory on the printing compute node when the environment starts
 
     Waiting for input...
     Reading input from standard input

     Current dimensions of program PWSCF are:
     Max number of different atomic species (ntypx) = 10
     Max number of k-points (npk) =  40000
     Max angular momentum in pseudopotentials (lmaxx) =  4
     file Zr.pbe-spn-kjpaw_psl.1.0.0.UPF: wavefunction(s)  4S 4P renormalized
     file Te.pbe-n-kjpaw_psl.1.0.0.UPF: wavefunction(s)  5S 5P renormalized
     Message from routine setup:
     using ibrav=0 with symmetry is DISCOURAGED, use correct ibrav instead

     Subspace diagonalization in iterative solution of the eigenvalue problem:
     a serial algorithm will be used

 
     Parallelization info
     --------------------
     sticks:   dense  smooth     PW     G-vecs:    dense   smooth      PW
     Min         734     293     87               115340    29174    4753
     Max         735     295     88               115345    29176    4760
     Sum        7345    2937    873              1153415   291749   47557
 
     Using Slab Decomposition
 


     bravais-lattice index     =            0
     lattice parameter (alat)  =      15.5510  a.u.
     unit-cell volume          =    3018.5011 (a.u.)^3
     number of atoms/cell      =           12
     number of atomic types    =            2
     number of electrons       =        84.00
     number of Kohn-Sham states=           50
     kinetic-energy cutoff     =      80.0000  Ry
     charge density cutoff     =     800.0000  Ry
     scf convergence threshold =      1.0E-10
     mixing beta               =       0.7000
     number of iterations used =            8  plain     mixing
     Exchange-correlation= SLA  PW   PBX  PBC
                           (   1   4   3   4   0   0   0)

     celldm(1)=  15.551040  celldm(2)=   0.000000  celldm(3)=   0.000000
     celldm(4)=   0.000000  celldm(5)=   0.000000  celldm(6)=   0.000000

     crystal axes: (cart. coord. in units of alat)
               a(1) = (   0.246007  -0.969268   0.000000 )  
               a(2) = (   0.246007   0.969268   0.000000 )  
               a(3) = (   0.000000   0.000000   1.683031 )  

     reciprocal axes: (cart. coord. in units 2 pi/alat)
               b(1) = (  2.032465 -0.515853  0.000000 )  
               b(2) = (  2.032465  0.515853  0.000000 )  
               b(3) = (  0.000000  0.000000  0.594166 )  


     PseudoPot. # 1 for Zr read from file:
     pseudo/Zr.pbe-spn-kjpaw_psl.1.0.0.UPF
     MD5 check sum: 02112c41713a0468aff2bb39ef194e36
     Pseudo is Projector augmented-wave + core cor, Zval = 12.0
     Generated using &quot;atomic&quot; code by A. Dal Corso  v.6.2.2
     Shape of augmentation charge: PSQ
     Using radial grid of 1225 points,  6 beta functions with: 
                l(1) =   0
                l(2) =   0
                l(3) =   1
                l(4) =   1
                l(5) =   2
                l(6) =   2
     Q(r) pseudized with 0 coefficients 


     PseudoPot. # 2 for Te read from file:
     pseudo/Te.pbe-n-kjpaw_psl.1.0.0.UPF
     MD5 check sum: 66247bff2bd9dbf220fbb0bf5ab56e9d
     Pseudo is Projector augmented-wave + core cor, Zval =  6.0
     Generated using &quot;atomic&quot; code by A. Dal Corso  v.6.3
     Shape of augmentation charge: PSQ
     Using radial grid of 1245 points,  6 beta functions with: 
                l(1) =   0
                l(2) =   0
                l(3) =   1
                l(4) =   1
                l(5) =   2
                l(6) =   2
     Q(r) pseudized with 0 coefficients 


     atomic species   valence    mass     pseudopotential
        Zr            12.00    91.22000     Zr( 1.00)
        Te             6.00   127.60000     Te( 1.00)

      8 Sym. Ops., with inversion, found ( 4 have fractional translation)



   Cartesian axes

     site n.     atom                  positions (alat units)
         1           Zr  tau(   1) = (   0.0000000   0.6019956   0.4207578  )
         2           Zr  tau(   2) = (   0.2460067   0.3672725   1.2622733  )
         3           Te  tau(   3) = (   0.2460067   0.3341758   0.4207578  )
         4           Te  tau(   4) = (   0.0000000   0.6350923   1.2622733  )
         5           Te  tau(   5) = (   0.2460067   0.8114699   0.2531856  )
         6           Te  tau(   6) = (   0.0000000   0.1577983   1.4298454  )
         7           Te  tau(   7) = (   0.2460067   0.8114699   0.5883299  )
         8           Te  tau(   8) = (   0.0000000   0.1577983   1.0947012  )
         9           Te  tau(   9) = (   0.0000000   0.4212192   0.7369192  )
        10           Te  tau(  10) = (   0.2460067   0.5480489   0.9461119  )
        11           Te  tau(  11) = (   0.0000000   0.4212192   0.1045964  )
        12           Te  tau(  12) = (   0.2460067   0.5480489   1.5784347  )

     number of k points=    63  Methfessel-Paxton smearing, width (Ry)=  0.0030
                       cart. coord. in units 2pi/alat
        k(    1) = (   0.0000000   0.0000000   0.0000000), wk =   0.0078125
        k(    2) = (   0.0000000   0.0000000   0.1485415), wk =   0.0156250
        k(    3) = (   0.0000000   0.0000000  -0.2970830), wk =   0.0078125
        k(    4) = (   0.2540581   0.0644816   0.0000000), wk =   0.0312500
        k(    5) = (   0.2540581   0.0644816   0.1485415), wk =   0.0625000
        k(    6) = (   0.2540581   0.0644816  -0.2970830), wk =   0.0312500
        k(    7) = (   0.5081162   0.1289633   0.0000000), wk =   0.0312500
        k(    8) = (   0.5081162   0.1289633   0.1485415), wk =   0.0625000
        k(    9) = (   0.5081162   0.1289633  -0.2970830), wk =   0.0312500
        k(   10) = (   0.7621743   0.1934449   0.0000000), wk =   0.0312500
        k(   11) = (   0.7621743   0.1934449   0.1485415), wk =   0.0625000
        k(   12) = (   0.7621743   0.1934449  -0.2970830), wk =   0.0312500
        k(   13) = (  -1.0162324  -0.2579266   0.0000000), wk =   0.0156250
        k(   14) = (  -1.0162324  -0.2579266   0.1485415), wk =   0.0312500
        k(   15) = (  -1.0162324  -0.2579266  -0.2970830), wk =   0.0156250
        k(   16) = (   0.5081162   0.0000000   0.0000000), wk =   0.0156250
        k(   17) = (   0.5081162   0.0000000   0.1485415), wk =   0.0312500
        k(   18) = (   0.5081162   0.0000000  -0.2970830), wk =   0.0156250
        k(   19) = (   0.7621743   0.0644816   0.0000000), wk =   0.0312500
        k(   20) = (   0.7621743   0.0644816   0.1485415), wk =   0.0625000
        k(   21) = (   0.7621743   0.0644816  -0.2970830), wk =   0.0312500
        k(   22) = (   1.0162324   0.1289633   0.0000000), wk =   0.0312500
        k(   23) = (   1.0162324   0.1289633   0.1485415), wk =   0.0625000
        k(   24) = (   1.0162324   0.1289633  -0.2970830), wk =   0.0312500
        k(   25) = (  -0.7621743  -0.3224082   0.0000000), wk =   0.0312500
        k(   26) = (  -0.7621743  -0.3224082   0.1485415), wk =   0.0625000
        k(   27) = (  -0.7621743  -0.3224082  -0.2970830), wk =   0.0312500
        k(   28) = (  -0.5081162  -0.2579266   0.0000000), wk =   0.0312500
        k(   29) = (  -0.5081162  -0.2579266   0.1485415), wk =   0.0625000
        k(   30) = (  -0.5081162  -0.2579266  -0.2970830), wk =   0.0312500
        k(   31) = (  -0.2540581  -0.1934449   0.0000000), wk =   0.0312500
        k(   32) = (  -0.2540581  -0.1934449   0.1485415), wk =   0.0625000
        k(   33) = (  -0.2540581  -0.1934449  -0.2970830), wk =   0.0312500
        k(   34) = (   0.0000000  -0.1289633   0.0000000), wk =   0.0156250
        k(   35) = (   0.0000000  -0.1289633   0.1485415), wk =   0.0312500
        k(   36) = (   0.0000000  -0.1289633  -0.2970830), wk =   0.0156250
        k(   37) = (   1.0162324   0.0000000   0.0000000), wk =   0.0156250
        k(   38) = (   1.0162324   0.0000000   0.1485415), wk =   0.0312500
        k(   39) = (   1.0162324   0.0000000  -0.2970830), wk =   0.0156250
        k(   40) = (   1.2702905   0.0644816   0.0000000), wk =   0.0312500
        k(   41) = (   1.2702905   0.0644816   0.1485415), wk =   0.0625000
        k(   42) = (   1.2702905   0.0644816  -0.2970830), wk =   0.0312500
        k(   43) = (  -0.5081162  -0.3868899   0.0000000), wk =   0.0312500
        k(   44) = (  -0.5081162  -0.3868899   0.1485415), wk =   0.0625000
        k(   45) = (  -0.5081162  -0.3868899  -0.2970830), wk =   0.0312500
        k(   46) = (  -0.2540581  -0.3224082   0.0000000), wk =   0.0312500
        k(   47) = (  -0.2540581  -0.3224082   0.1485415), wk =   0.0625000
        k(   48) = (  -0.2540581  -0.3224082  -0.2970830), wk =   0.0312500
        k(   49) = (   0.0000000  -0.2579266   0.0000000), wk =   0.0156250
        k(   50) = (   0.0000000  -0.2579266   0.1485415), wk =   0.0312500
        k(   51) = (   0.0000000  -0.2579266  -0.2970830), wk =   0.0156250
        k(   52) = (   1.5243485   0.0000000   0.0000000), wk =   0.0156250
        k(   53) = (   1.5243485   0.0000000   0.1485415), wk =   0.0312500
        k(   54) = (   1.5243485   0.0000000  -0.2970830), wk =   0.0156250
        k(   55) = (  -0.2540581  -0.4513715   0.0000000), wk =   0.0312500
        k(   56) = (  -0.2540581  -0.4513715   0.1485415), wk =   0.0625000
        k(   57) = (  -0.2540581  -0.4513715  -0.2970830), wk =   0.0312500
        k(   58) = (   0.0000000  -0.3868899   0.0000000), wk =   0.0156250
        k(   59) = (   0.0000000  -0.3868899   0.1485415), wk =   0.0312500
        k(   60) = (   0.0000000  -0.3868899  -0.2970830), wk =   0.0156250
        k(   61) = (  -2.0324647   0.0000000   0.0000000), wk =   0.0078125
        k(   62) = (  -2.0324647   0.0000000   0.1485415), wk =   0.0156250
        k(   63) = (  -2.0324647   0.0000000  -0.2970830), wk =   0.0078125

     Dense  grid:  1153415 G-vectors     FFT dimensions: ( 144, 144, 240)

     Smooth grid:   291749 G-vectors     FFT dimensions: (  90,  90, 150)

     Estimated max dynamical RAM per process >     657.19 MB

     Estimated total dynamical RAM >       6.42 GB

     Initial potential from superposition of free atoms

     starting charge   83.99353, renormalised to   84.00000
     Starting wfcs are   66 randomized atomic wfcs
     Checking if some PAW data can be deallocated... 

     total cpu time spent up to now is       24.0 secs

     Self-consistent Calculation

     iteration #  1     ecut=    80.00 Ry     beta= 0.70
     Davidson diagonalization with overlap
     ethr =  1.00E-02,  avg # of iterations =  2.2

     Threshold (ethr) on eigenvalues was too large:
     Diagonalizing with lowered threshold

     Davidson diagonalization with overlap
     ethr =  4.48E-04,  avg # of iterations =  4.0

     total cpu time spent up to now is      114.3 secs

     total energy              =   -4240.71778566 Ry
     estimated scf accuracy    <       0.44543522 Ry

     iteration #  2     ecut=    80.00 Ry     beta= 0.70
     Davidson diagonalization with overlap
     ethr =  5.30E-04,  avg # of iterations =  7.9

     total cpu time spent up to now is      179.5 secs

     WARNING: integrated charge=    83.99955838, expected=    84.00000000

     total energy              =   -4240.62105299 Ry
     estimated scf accuracy    <       2.03909147 Ry

     iteration #  3     ecut=    80.00 Ry     beta= 0.70
     Davidson diagonalization with overlap
     ethr =  5.30E-04,  avg # of iterations =  5.4

     total cpu time spent up to now is      233.5 secs

     WARNING: integrated charge=    83.99989237, expected=    84.00000000

     total energy              =   -4240.93180482 Ry
     estimated scf accuracy    <       0.00812237 Ry

     iteration #  4     ecut=    80.00 Ry     beta= 0.70
     Davidson diagonalization with overlap
     c_bands:  1 eigenvalues not converged
     c_bands:  2 eigenvalues not converged
     c_bands:  2 eigenvalues not converged
     c_bands:  2 eigenvalues not converged
     c_bands:  2 eigenvalues not converged
     c_bands:  1 eigenvalues not converged
     c_bands:  3 eigenvalues not converged
     c_bands:  1 eigenvalues not converged
     c_bands:  1 eigenvalues not converged
     c_bands:  3 eigenvalues not converged
     c_bands:  2 eigenvalues not converged
     c_bands:  1 eigenvalues not converged
     c_bands:  1 eigenvalues not converged
     c_bands:  2 eigenvalues not converged
     c_bands:  1 eigenvalues not converged
     c_bands:  1 eigenvalues not converged
     c_bands:  1 eigenvalues not converged
     c_bands:  1 eigenvalues not converged
     ethr =  9.67E-06,  avg # of iterations = 17.3

     total cpu time spent up to now is      337.6 secs

     WARNING: integrated charge=    83.99987378, expected=    84.00000000

     total energy              =   -4240.94203276 Ry
     estimated scf accuracy    <       0.04261548 Ry

     iteration #  5     ecut=    80.00 Ry     beta= 0.70
     Davidson diagonalization with overlap
     ethr =  9.67E-06,  avg # of iterations =  6.9

     total cpu time spent up to now is      392.1 secs

     WARNING: integrated charge=    83.99989218, expected=    84.00000000

     total energy              =   -4240.94388168 Ry
     estimated scf accuracy    <       0.00723766 Ry

     iteration #  6     ecut=    80.00 Ry     beta= 0.70
     Davidson diagonalization with overlap
     ethr =  8.62E-06,  avg # of iterations =  3.2

     total cpu time spent up to now is      435.2 secs

     WARNING: integrated charge=    83.99993279, expected=    84.00000000

     total energy              =   -4240.94450745 Ry
     estimated scf accuracy    <       0.00097207 Ry

     iteration #  7     ecut=    80.00 Ry     beta= 0.70
     Davidson diagonalization with overlap
     ethr =  1.16E-06,  avg # of iterations = 10.0

     total cpu time spent up to now is      504.2 secs

     WARNING: integrated charge=    83.99997912, expected=    84.00000000

     total energy              =   -4240.94497752 Ry
     estimated scf accuracy    <       0.00098696 Ry

     iteration #  8     ecut=    80.00 Ry     beta= 0.70
     Davidson diagonalization with overlap
     ethr =  1.16E-06,  avg # of iterations =  2.1

     total cpu time spent up to now is      543.3 secs

     total energy              =   -4240.94501291 Ry
     estimated scf accuracy    <       0.00013312 Ry

     iteration #  9     ecut=    80.00 Ry     beta= 0.70
     Davidson diagonalization with overlap
     ethr =  1.58E-07,  avg # of iterations =  6.2

     total cpu time spent up to now is      597.2 secs

     total energy              =   -4240.94505925 Ry
     estimated scf accuracy    <       0.00002263 Ry

     iteration # 10     ecut=    80.00 Ry     beta= 0.70
     Davidson diagonalization with overlap
     ethr =  2.69E-08,  avg # of iterations =  2.6

     total cpu time spent up to now is      638.3 secs

     total energy              =   -4240.94506171 Ry
     estimated scf accuracy    <       0.00000208 Ry

     iteration # 11     ecut=    80.00 Ry     beta= 0.70
     Davidson diagonalization with overlap
     ethr =  2.48E-09,  avg # of iterations =  7.0

     total cpu time spent up to now is      697.4 secs

     total energy              =   -4240.94506317 Ry
     estimated scf accuracy    <       0.00000087 Ry

     iteration # 12     ecut=    80.00 Ry     beta= 0.70
     Davidson diagonalization with overlap
     ethr =  1.03E-09,  avg # of iterations =  2.4

     total cpu time spent up to now is      737.5 secs

     total energy              =   -4240.94506320 Ry
     estimated scf accuracy    <       0.00000015 Ry

     iteration # 13     ecut=    80.00 Ry     beta= 0.70
     Davidson diagonalization with overlap
     ethr =  1.75E-10,  avg # of iterations =  6.0

     total cpu time spent up to now is      792.4 secs

     total energy              =   -4240.94506327 Ry
     estimated scf accuracy    <       0.00000003 Ry

     iteration # 14     ecut=    80.00 Ry     beta= 0.70
     Davidson diagonalization with overlap
     ethr =  3.21E-11,  avg # of iterations =  2.0

     total cpu time spent up to now is      831.5 secs

     total energy              =   -4240.94506326 Ry
     estimated scf accuracy    <       0.00000001 Ry

     iteration # 15     ecut=    80.00 Ry     beta= 0.70
     Davidson diagonalization with overlap
     ethr =  1.58E-11,  avg # of iterations =  4.5

     total cpu time spent up to now is      878.0 secs

     total energy              =   -4240.94506327 Ry
     estimated scf accuracy    <          3.1E-10 Ry

     iteration # 16     ecut=    80.00 Ry     beta= 0.70
     Davidson diagonalization with overlap
     ethr =  3.65E-13,  avg # of iterations =  7.8

     total cpu time spent up to now is      941.3 secs

     total energy              =   -4240.94506327 Ry
     estimated scf accuracy    <          6.3E-10 Ry

     iteration # 17     ecut=    80.00 Ry     beta= 0.70
     Davidson diagonalization with overlap
     ethr =  3.65E-13,  avg # of iterations =  1.6

     total cpu time spent up to now is      978.5 secs

     total energy              =   -4240.94506327 Ry
     estimated scf accuracy    <          3.1E-10 Ry

     iteration # 18     ecut=    80.00 Ry     beta= 0.70
     Davidson diagonalization with overlap
     ethr =  3.65E-13,  avg # of iterations =  3.3

     total cpu time spent up to now is     1021.2 secs

     End of self-consistent calculation

          k = 0.0000 0.0000 0.0000 ( 36359 PWs)   bands (ev):

   -44.1429 -44.1429 -22.2599 -22.2599 -22.1698 -22.1698 -22.0776 -22.0774
    -8.1211  -7.8871  -7.1296  -6.9367  -6.1464  -5.4109  -4.8018  -4.7678
    -4.7522  -3.7890   0.2540   0.7762   0.8168   1.1510   1.3312   1.5362
     1.9693   2.1182   2.2746   2.7933   2.9180   2.9923   3.2950   3.3488
     3.8101   3.9077   4.0632   4.0918   4.3311   4.3405   4.4342   4.7210
     4.7265   5.3650   5.6340   5.8872   5.8874   5.9636   6.0017   6.7614
     7.0641   7.2821

          k = 0.0000 0.0000 0.1485 ( 36415 PWs)   bands (ev):

   -44.1429 -44.1429 -22.2599 -22.2599 -22.1698 -22.1698 -22.0775 -22.0774
    -8.0942  -7.9319  -7.0874  -6.9552  -6.0805  -5.6046  -4.7936  -4.7594
    -4.5467  -3.8996   0.3301   0.8437   0.9180   0.9498   1.1076   1.8671
     1.9874   2.0171   2.0915   2.8174   2.9042   3.0562   3.3942   3.4484
     3.7740   3.9590   4.0342   4.1034   4.2579   4.3734   4.4437   4.7124
     4.7158   4.8981   5.8431   5.8814   5.8883   6.1550   6.3415   6.6063
     6.8765   7.1335

          k = 0.0000 0.0000-0.2971 ( 36410 PWs)   bands (ev):

   -44.1429 -44.1429 -22.2599 -22.2599 -22.1698 -22.1698 -22.0775 -22.0775
    -8.0213  -8.0213  -7.0102  -7.0102  -5.8869  -5.8869  -4.7766  -4.7766
    -4.1867  -4.1867   0.5588   0.5588   0.9657   0.9657   1.3439   1.3439
     2.0354   2.0354   2.5757   2.5757   2.8657   2.8657   3.5839   3.5839
     3.9255   3.9255   4.0968   4.0968   4.3146   4.3146   4.4264   4.4264
     4.7071   4.7071   5.8804   5.8804   6.2230   6.2230   6.5045   6.5045
     6.8222   6.8223

          k = 0.2541 0.0645 0.0000 ( 36396 PWs)   bands (ev):

   -44.1425 -44.1425 -22.2580 -22.2579 -22.1794 -22.1794 -22.0765 -22.0763
    -7.9975  -7.7663  -7.0637  -6.8878  -6.0867  -5.3630  -4.8117  -4.7561
    -4.7068  -3.9626   0.3360   0.8914   0.9419   1.0124   1.2596   1.4908
     1.5698   1.6576   1.7898   2.5878   2.6168   3.2261   3.2617   3.7068
     3.7791   3.7793   3.8706   3.8845   4.0652   4.2592   4.3323   4.3963
     4.4669   4.5825   5.9053   5.9799   6.1735   6.5139   6.5617   6.6637
     7.0378   7.2194

          k = 0.2541 0.0645 0.1485 ( 36423 PWs)   bands (ev):

   -44.1425 -44.1425 -22.2580 -22.2579 -22.1794 -22.1794 -22.0764 -22.0763
    -7.9709  -7.8107  -7.0249  -6.9045  -6.0203  -5.5526  -4.7596  -4.7159
    -4.5961  -4.0498   0.4010   0.8477   0.9185   0.9831   1.2098   1.2457
     1.7216   1.7405   2.1124   2.5864   2.5987   2.9523   3.4016   3.4129
     3.5254   3.8335   3.9598   4.0132   4.0561   4.2021   4.3891   4.4132
     4.6900   4.7476   5.8769   5.9970   6.1317   6.2388   6.3296   6.7908
     7.2114   7.2568

          k = 0.2541 0.0645-0.2971 ( 36436 PWs)   bands (ev):

   -44.1425 -44.1425 -22.2579 -22.2579 -22.1794 -22.1794 -22.0764 -22.0764
    -7.8990  -7.8990  -6.9545  -6.9545  -5.8282  -5.8282  -4.7372  -4.7372
    -4.2853  -4.2853   0.5881   0.5881   1.0074   1.0074   1.1128   1.1128
     1.8405   1.8405   2.4872   2.4872   2.6532   2.6532   3.2564   3.2564
     3.6688   3.6688   3.9937   3.9937   4.1565   4.1565   4.4126   4.4126
     4.9444   4.9444   5.7946   5.7946   6.1464   6.1464   6.4624   6.4624
     7.3700   7.3700

          k = 0.5081 0.1290 0.0000 ( 36499 PWs)   bands (ev):

   -44.1416 -44.1416 -22.2533 -22.2532 -22.2024 -22.2024 -22.0738 -22.0737
    -7.6372  -7.4123  -6.9068  -6.7651  -5.9128  -5.2465  -5.0102  -4.6424
    -4.5952  -4.4730   0.1264   0.5066   0.6809   1.0771   1.1675   1.3025
     1.6326   1.7098   1.8271   2.0857   2.1484   2.3641   2.5338   3.4192
     3.4962   3.5365   3.5738   3.6407   3.7689   3.8538   3.9802   4.2120
     4.3286   4.9097   5.7749   6.1383   6.2419   6.6059   6.6362   7.0270
     7.4443   7.5563

          k = 0.5081 0.1290 0.1485 ( 36476 PWs)   bands (ev):

   -44.1416 -44.1416 -22.2533 -22.2532 -22.2024 -22.2024 -22.0738 -22.0737
    -7.6118  -7.4565  -6.8746  -6.7785  -5.8489  -5.4287  -4.8641  -4.6291
    -4.6147  -4.4924   0.1744   0.4912   0.7695   0.8996   1.1900   1.2824
     1.4025   1.5755   2.0064   2.0924   2.3353   2.4728   2.8474   3.3867
     3.4473   3.5023   3.5192   3.6617   3.7495   3.7776   3.8658   4.2497
     4.2981   4.4725   6.2187   6.2587   6.4103   6.6059   6.6885   6.8960
     7.2941   7.5246

          k = 0.5081 0.1290-0.2971 ( 36466 PWs)   bands (ev):

   -44.1416 -44.1416 -22.2532 -22.2532 -22.2024 -22.2024 -22.0737 -22.0737
    -7.5426  -7.5426  -6.8182  -6.8182  -5.6722  -5.6722  -4.7141  -4.7141
    -4.5516  -4.5516   0.3254   0.3254   0.9800   0.9800   1.0036   1.0036
     1.4529   1.4529   2.0552   2.0552   2.6682   2.6682   3.1822   3.1822
     3.3934   3.3934   3.5750   3.5750   3.7459   3.7459   3.8878   3.8878
     4.3304   4.3304   6.4560   6.4560   6.5694   6.5694   6.8768   6.8768
     7.2142   7.2142

          k = 0.7622 0.1934 0.0000 ( 36521 PWs)   bands (ev):

   -44.1408 -44.1407 -22.2485 -22.2485 -22.2254 -22.2254 -22.0711 -22.0710
    -7.0960  -6.8548  -6.7601  -6.6072  -5.7288  -5.4833  -5.1579  -5.1424
    -4.5160  -4.4784  -0.1550   0.0211   0.2941   0.9419   0.9443   1.2919
     1.4870   1.5996   2.0054   2.1880   2.2300   2.2511   2.4431   2.8065
     2.9656   3.2533   3.3552   3.4909   3.5014   3.6682   3.7396   3.7578
     3.8430   4.5784   6.0942   6.4277   6.5106   6.9170   6.9414   7.0036
     7.3729   7.6367

          k = 0.7622 0.1934 0.1485 ( 36503 PWs)   bands (ev):

   -44.1407 -44.1407 -22.2485 -22.2485 -22.2254 -22.2254 -22.0711 -22.0711
    -7.0730  -6.9195  -6.7103  -6.6191  -5.6898  -5.5146  -5.1616  -5.1485
    -4.5083  -4.4822  -0.1258   0.1524   0.1931   0.8139   0.9593   1.2440
     1.4972   1.6047   1.9936   2.0384   2.1312   2.5893   2.6978   2.8903
     2.9291   3.0446   3.2721   3.3675   3.5142   3.6097   3.7234   3.9307
     3.9825   4.4703   5.9183   6.4182   6.7237   6.8596   7.0246   7.0404
     7.1592   7.6494

          k = 0.7622 0.1934-0.2971 ( 36522 PWs)   bands (ev):

   -44.1408 -44.1408 -22.2485 -22.2485 -22.2254 -22.2254 -22.0711 -22.0711
    -7.0087  -7.0087  -6.6541  -6.6541  -5.5987  -5.5987  -5.1595  -5.1595
    -4.4934  -4.4934   0.0011   0.0011   0.4702   0.4702   1.0808   1.0808
     1.5582   1.5582   2.0031   2.0031   2.4214   2.4214   2.8397   2.8397
     2.9694   2.9694   3.2804   3.2804   3.5970   3.5970   3.9481   3.9481
     4.0633   4.0633   6.3149   6.3149   6.5089   6.5089   7.0483   7.0483
     7.5319   7.5319

          k =-1.0162-0.2579 0.0000 ( 36506 PWs)   bands (ev):

   -44.1404 -44.1404 -22.2464 -22.2464 -22.2349 -22.2349 -22.0700 -22.0700
    -6.7473  -6.7266  -6.1939  -6.1825  -6.1667  -6.1617  -5.2203  -5.2198
    -4.4582  -4.4294  -0.1108  -0.0910   0.1976   0.2192   1.0110   1.0192
     1.4669   1.6618   2.2187   2.3821   2.4022   2.4271   2.8037   2.8236
     2.8269   2.8525   3.1855   3.2441   3.3094   3.3675   3.4430   3.6375
     3.9173   4.1862   6.6495   6.7214   6.7309   6.7502   7.0989   7.1946
     7.1969   7.2582

          k =-1.0162-0.2579 0.1485 ( 36506 PWs)   bands (ev):

   -44.1404 -44.1404 -22.2464 -22.2464 -22.2349 -22.2349 -22.0700 -22.0700
    -6.7428  -6.7280  -6.2234  -6.2160  -6.1362  -6.1319  -5.2185  -5.2181
    -4.4565  -4.4361  -0.2053  -0.1993   0.3948   0.4027   1.0063   1.0175
     1.4603   1.5920   2.0550   2.1784   2.3511   2.3949   2.6592   2.6725
     2.9293   3.0411   3.0910   3.2030   3.5389   3.5594   3.5900   3.7202
     4.0678   4.2157   6.2062   6.2270   6.5583   6.6353   7.2034   7.2134
     7.4144   7.4825

          k =-1.0162-0.2579-0.2971 ( 36528 PWs)   bands (ev):

   -44.1404 -44.1404 -22.2464 -22.2464 -22.2349 -22.2349 -22.0700 -22.0700
    -6.7338  -6.7338  -6.2370  -6.2370  -6.1181  -6.1181  -5.2165  -5.2165
    -4.4488  -4.4488  -0.2642  -0.2642   0.5881   0.5881   0.9725   0.9725
     1.5080   1.5080   1.8996   1.8996   2.3546   2.3546   2.7612   2.7612
     2.8390   2.8390   3.1867   3.1867   3.6341   3.6341   3.7918   3.7918
     4.3137   4.3137   5.8315   5.8315   6.5029   6.5029   7.2234   7.2234
     7.5460   7.5460

          k = 0.5081 0.0000 0.0000 ( 36503 PWs)   bands (ev):

   -44.1416 -44.1416 -22.2533 -22.2532 -22.2024 -22.2024 -22.0738 -22.0737
    -7.6397  -7.4127  -6.9073  -6.7633  -5.9096  -5.2460  -5.0077  -4.6360
    -4.6029  -4.4725   0.1311   0.5015   0.6794   1.0987   1.1634   1.2504
     1.6269   1.7015   1.8138   2.0927   2.1454   2.3497   2.5359   3.4117
     3.5293   3.5518   3.5903   3.6124   3.7800   3.9067   3.9618   4.2495
     4.3312   4.9018   5.7810   6.1143   6.2759   6.5689   6.5841   7.0642
     7.4516   7.5784

          k = 0.5081 0.0000 0.1485 ( 36453 PWs)   bands (ev):

   -44.1416 -44.1416 -22.2533 -22.2532 -22.2024 -22.2024 -22.0738 -22.0737
    -7.6141  -7.4576  -6.8742  -6.7767  -5.8464  -5.4280  -4.8604  -4.6299
    -4.6141  -4.4941   0.1776   0.4847   0.7713   0.9054   1.2085   1.2543
     1.3687   1.5531   2.0053   2.1056   2.3309   2.4527   2.8469   3.4034
     3.4681   3.4816   3.5306   3.6753   3.7370   3.8408   3.8436   4.2998
     4.3013   4.4580   6.2068   6.2696   6.4294   6.5609   6.6507   6.9294
     7.3095   7.5387

          k = 0.5081 0.0000-0.2971 ( 36452 PWs)   bands (ev):

   -44.1416 -44.1416 -22.2532 -22.2532 -22.2024 -22.2024 -22.0737 -22.0737
    -7.5444  -7.5444  -6.8168  -6.8168  -5.6708  -5.6708  -4.7105  -4.7105
    -4.5542  -4.5542   0.3247   0.3247   0.9811   0.9811   1.0072   1.0072
     1.4180   1.4180   2.0589   2.0589   2.6582   2.6582   3.1825   3.1825
     3.4014   3.4014   3.5804   3.5804   3.7764   3.7764   3.8789   3.8789
     4.3487   4.3487   6.4709   6.4709   6.5333   6.5333   6.8952   6.8952
     7.2151   7.2151

          k = 0.7622 0.0645 0.0000 ( 36505 PWs)   bands (ev):

   -44.1408 -44.1407 -22.2485 -22.2485 -22.2254 -22.2254 -22.0711 -22.0710
    -7.1021  -6.8558  -6.7575  -6.6025  -5.7292  -5.4810  -5.1582  -5.1416
    -4.5052  -4.4900  -0.1460   0.0185   0.3043   0.9341   0.9727   1.3053
     1.4545   1.5622   1.9688   2.2108   2.2309   2.2639   2.3802   2.7822
     2.9555   3.2988   3.3677   3.4955   3.5644   3.6657   3.6987   3.7666
     3.8347   4.6035   6.0915   6.4012   6.5302   6.9142   6.9634   6.9733
     7.3828   7.6693

          k = 0.7622 0.0645 0.1485 ( 36509 PWs)   bands (ev):

   -44.1408 -44.1407 -22.2485 -22.2485 -22.2254 -22.2254 -22.0711 -22.0711
    -7.0787  -6.9222  -6.7063  -6.6142  -5.6903  -5.5134  -5.1613  -5.1475
    -4.5008  -4.4903  -0.1174   0.1509   0.1998   0.8034   0.9869   1.2576
     1.4677   1.6018   1.9764   2.0044   2.0872   2.5930   2.6969   2.8813
     2.9129   3.0496   3.3149   3.3718   3.5597   3.5998   3.6924   3.9663
     3.9791   4.4641   5.9426   6.3951   6.7400   6.8608   6.9963   7.0825
     7.1314   7.6726

          k = 0.7622 0.0645-0.2971 ( 36472 PWs)   bands (ev):

   -44.1407 -44.1407 -22.2485 -22.2485 -22.2254 -22.2254 -22.0711 -22.0711
    -7.0133  -7.0133  -6.6490  -6.6490  -5.5989  -5.5989  -5.1585  -5.1585
    -4.4935  -4.4935   0.0094   0.0094   0.4632   0.4632   1.1008   1.1008
     1.5529   1.5529   1.9499   1.9499   2.4137   2.4137   2.8439   2.8439
     2.9494   2.9494   3.3324   3.3324   3.5940   3.5940   3.9483   3.9483
     4.0607   4.0607   6.3419   6.3419   6.5082   6.5082   7.0180   7.0180
     7.5593   7.5593

          k = 1.0162 0.1290 0.0000 ( 36514 PWs)   bands (ev):

   -44.1404 -44.1404 -22.2464 -22.2464 -22.2349 -22.2349 -22.0700 -22.0700
    -6.7473  -6.7266  -6.1938  -6.1826  -6.1667  -6.1617  -5.2203  -5.2198
    -4.4582  -4.4294  -0.1165  -0.0852   0.1947   0.2223   1.0032   1.0279
     1.4737   1.6518   2.2152   2.3875   2.4050   2.4211   2.7754   2.8252
     2.8468   2.8744   3.2058   3.2144   3.2938   3.3536   3.4897   3.6202
     3.9008   4.2024   6.6438   6.7154   6.7301   6.7659   7.1229   7.1949
     7.1989   7.2385

          k = 1.0162 0.1290 0.1485 ( 36524 PWs)   bands (ev):

   -44.1404 -44.1404 -22.2464 -22.2464 -22.2349 -22.2349 -22.0700 -22.0700
    -6.7428  -6.7280  -6.2234  -6.2161  -6.1361  -6.1319  -5.2185  -5.2181
    -4.4565  -4.4361  -0.2077  -0.1972   0.3961   0.4020   1.0054   1.0185
     1.4665   1.5856   2.0648   2.1614   2.3538   2.3933   2.6320   2.7060
     2.9299   3.0527   3.0899   3.1936   3.5166   3.5559   3.6251   3.7126
     4.0463   4.2350   6.2011   6.2370   6.5548   6.6378   7.2063   7.2132
     7.4249   7.4733

          k = 1.0162 0.1290-0.2971 ( 36516 PWs)   bands (ev):

   -44.1404 -44.1404 -22.2464 -22.2464 -22.2349 -22.2349 -22.0700 -22.0700
    -6.7338  -6.7338  -6.2370  -6.2370  -6.1181  -6.1181  -5.2165  -5.2165
    -4.4488  -4.4488  -0.2643  -0.2643   0.5885   0.5885   0.9723   0.9723
     1.5092   1.5092   1.9004   1.9004   2.3478   2.3478   2.7419   2.7419
     2.8730   2.8730   3.1756   3.1756   3.6360   3.6360   3.7907   3.7907
     4.3142   4.3142   5.8343   5.8343   6.5022   6.5022   7.2244   7.2244
     7.5471   7.5471

          k =-0.7622-0.3224 0.0000 ( 36511 PWs)   bands (ev):

   -44.1408 -44.1407 -22.2485 -22.2485 -22.2254 -22.2254 -22.0711 -22.0710
    -7.0870  -6.8534  -6.7645  -6.6135  -5.7284  -5.4866  -5.1573  -5.1439
    -4.5243  -4.4691  -0.1674   0.0251   0.2795   0.9080   0.9586   1.2755
     1.5035   1.6661   2.0808   2.1655   2.2194   2.2714   2.4617   2.8432
     2.9758   3.2149   3.3418   3.4833   3.4858   3.6261   3.6806   3.7261
     3.9577   4.5348   6.0980   6.4469   6.5146   6.8354   6.9827   7.0706
     7.3475   7.5909

          k =-0.7622-0.3224 0.1485 ( 36492 PWs)   bands (ev):

   -44.1408 -44.1407 -22.2485 -22.2485 -22.2254 -22.2254 -22.0711 -22.0711
    -7.0645  -6.9157  -6.7166  -6.6260  -5.6891  -5.5164  -5.1619  -5.1499
    -4.5141  -4.4756  -0.1376   0.1557   0.1825   0.8280   0.9282   1.2254
     1.5263   1.6159   1.9904   2.1298   2.1869   2.5869   2.6762   2.9117
     2.9374   3.0633   3.2296   3.3437   3.4748   3.5878   3.7536   3.8790
     4.0059   4.4773   5.8861   6.4550   6.6925   6.8557   6.9983   7.0821
     7.1849   7.5991

          k =-0.7622-0.3224-0.2971 ( 36508 PWs)   bands (ev):

   -44.1407 -44.1407 -22.2485 -22.2485 -22.2254 -22.2254 -22.0711 -22.0711
    -7.0019  -7.0019  -6.6616  -6.6616  -5.5984  -5.5984  -5.1608  -5.1608
    -4.4931  -4.4931  -0.0104  -0.0104   0.4796   0.4796   1.0568   1.0568
     1.5664   1.5664   2.0672   2.0672   2.4462   2.4462   2.8347   2.8347
     2.9982   2.9982   3.2076   3.2076   3.5943   3.5943   3.9183   3.9183
     4.0950   4.0950   6.2808   6.2808   6.5081   6.5081   7.0968   7.0968
     7.4820   7.4820

          k =-0.5081-0.2579 0.0000 ( 36480 PWs)   bands (ev):

   -44.1416 -44.1416 -22.2533 -22.2532 -22.2024 -22.2024 -22.0738 -22.0737
    -7.6313  -7.4112  -6.9063  -6.7689  -5.9204  -5.2475  -5.0163  -4.6518
    -4.5829  -4.4741   0.1151   0.5188   0.6820   1.0510   1.1773   1.4131
     1.6423   1.7392   1.8605   2.0737   2.1465   2.3939   2.5266   3.3942
     3.4399   3.5337   3.5541   3.6786   3.7106   3.7642   4.0198   4.1262
     4.3188   4.9264   5.7625   6.1496   6.2089   6.7012   6.7602   6.9398
     7.4182   7.5068

          k =-0.5081-0.2579 0.1485 ( 36485 PWs)   bands (ev):

   -44.1416 -44.1416 -22.2533 -22.2532 -22.2024 -22.2024 -22.0738 -22.0737
    -7.6062  -7.4541  -6.8759  -6.7825  -5.8550  -5.4303  -4.8727  -4.6268
    -4.6166  -4.4886   0.1667   0.5064   0.7651   0.8854   1.1777   1.3137
     1.4962   1.6386   1.9983   2.0692   2.3470   2.5120   2.8476   3.3151
     3.4499   3.5043   3.5101   3.6392   3.6529   3.7694   3.9030   4.1647
     4.2641   4.4982   6.2209   6.2537   6.3704   6.7034   6.7920   6.8242
     7.2493   7.4953

          k =-0.5081-0.2579-0.2971 ( 36478 PWs)   bands (ev):

   -44.1416 -44.1416 -22.2532 -22.2532 -22.2024 -22.2024 -22.0737 -22.0737
    -7.5382  -7.5382  -6.8217  -6.8217  -5.6755  -5.6755  -4.7224  -4.7224
    -4.5456  -4.5456   0.3271   0.3271   0.9753   0.9753   0.9987   0.9987
     1.5442   1.5442   2.0405   2.0405   2.6981   2.6981   3.1639   3.1639
     3.3758   3.3758   3.5452   3.5452   3.7004   3.7004   3.9065   3.9065
     4.2883   4.2883   6.4222   6.4222   6.6470   6.6470   6.8362   6.8362
     7.2195   7.2195

          k =-0.2541-0.1934 0.0000 ( 36410 PWs)   bands (ev):

   -44.1425 -44.1425 -22.2580 -22.2579 -22.1794 -22.1794 -22.0765 -22.0763
    -7.9934  -7.7656  -7.0596  -6.8900  -6.0984  -5.3665  -4.8258  -4.7589
    -4.6932  -3.9634   0.3595   0.8953   1.0084   1.0086   1.2877   1.5281
     1.5956   1.6604   1.8131   2.5569   2.6073   3.2146   3.3198   3.6814
     3.7254   3.7383   3.8534   3.8767   3.9138   4.1946   4.3210   4.3467
     4.3638   4.6261   5.9627   6.0198   6.2502   6.5275   6.5476   6.7305
     7.0101   7.1405

          k =-0.2541-0.1934 0.1485 ( 36427 PWs)   bands (ev):

   -44.1425 -44.1425 -22.2580 -22.2579 -22.1794 -22.1794 -22.0764 -22.0763
    -7.9671  -7.8090  -7.0226  -6.9065  -6.0303  -5.5566  -4.7761  -4.7083
    -4.5915  -4.0499   0.4241   0.8497   0.9282   1.0550   1.2369   1.2704
     1.7254   1.7509   2.1451   2.5564   2.5932   2.9457   3.4166   3.4570
     3.5359   3.7466   3.8398   3.9066   4.0102   4.1725   4.3478   4.3617
     4.6600   4.7781   5.8768   6.0193   6.1349   6.3121   6.3973   6.7903
     7.1719   7.2477

          k =-0.2541-0.1934-0.2971 ( 36422 PWs)   bands (ev):

   -44.1425 -44.1425 -22.2579 -22.2579 -22.1794 -22.1794 -22.0764 -22.0764
    -7.8960  -7.8960  -6.9550  -6.9550  -5.8347  -5.8347  -4.7409  -4.7409
    -4.2838  -4.2838   0.6074   0.6074   1.0289   1.0289   1.1528   1.1528
     1.8469   1.8469   2.4860   2.4860   2.6545   2.6545   3.2653   3.2653
     3.6781   3.6781   3.8403   3.8403   4.1321   4.1321   4.3597   4.3597
     4.9597   4.9597   5.7660   5.7660   6.1859   6.1859   6.5087   6.5087
     7.3588   7.3588

          k = 0.0000-0.1290 0.0000 ( 36417 PWs)   bands (ev):

   -44.1429 -44.1429 -22.2599 -22.2599 -22.1698 -22.1698 -22.0776 -22.0774
    -8.1190  -7.8867  -7.1266  -6.9378  -6.1539  -5.4135  -4.8129  -4.7738
    -4.7371  -3.7894   0.2701   0.7796   0.8575   1.1619   1.3426   1.5674
     1.9692   2.1176   2.2725   2.8003   2.9210   2.9945   3.2921   3.3874
     3.7750   3.8964   3.9325   4.0127   4.2866   4.3313   4.3874   4.7139
     4.7199   5.3403   5.6537   5.9112   5.9383   6.0096   6.0113   6.7750
     7.0642   7.2292

          k = 0.0000-0.1290 0.1485 ( 36419 PWs)   bands (ev):

   -44.1429 -44.1429 -22.2599 -22.2599 -22.1698 -22.1698 -22.0775 -22.0774
    -8.0922  -7.9310  -7.0855  -6.9560  -6.0870  -5.6074  -4.8028  -4.7542
    -4.5453  -3.8997   0.3464   0.8874   0.9257   0.9536   1.1284   1.8714
     1.9873   2.0349   2.0911   2.8237   2.9078   3.0612   3.3747   3.4863
     3.7711   3.9109   3.9484   4.0011   4.2543   4.3193   4.3989   4.7044
     4.7147   4.8916   5.8581   5.9094   5.9371   6.1610   6.3541   6.6152
     6.8776   7.1017

          k = 0.0000-0.1290-0.2971 ( 36464 PWs)   bands (ev):

   -44.1429 -44.1429 -22.2599 -22.2599 -22.1698 -22.1698 -22.0775 -22.0775
    -8.0197  -8.0197  -7.0100  -7.0100  -5.8914  -5.8914  -4.7784  -4.7784
    -4.1862  -4.1862   0.5773   0.5773   0.9909   0.9909   1.3492   1.3492
     2.0352   2.0352   2.5879   2.5879   2.8706   2.8706   3.5868   3.5868
     3.8613   3.8613   4.0885   4.0885   4.2337   4.2337   4.4148   4.4148
     4.7042   4.7042   5.9102   5.9102   6.2361   6.2361   6.5077   6.5077
     6.8135   6.8135

          k = 1.0162 0.0000 0.0000 ( 36499 PWs)   bands (ev):

   -44.1404 -44.1404 -22.2464 -22.2464 -22.2349 -22.2349 -22.0700 -22.0700
    -6.7473  -6.7266  -6.1936  -6.1828  -6.1667  -6.1616  -5.2203  -5.2198
    -4.4582  -4.4294  -0.1206  -0.0810   0.1923   0.2248   0.9991   1.0329
     1.4814   1.6408   2.2118   2.3964   2.4079   2.4115   2.7649   2.8318
     2.8361   2.9047   3.1944   3.2323   3.2743   3.3331   3.5529   3.5800
     3.8861   4.2168   6.6389   6.7064   6.7380   6.7750   7.1652   7.1953
     7.2006   7.2007

          k = 1.0162 0.0000 0.1485 ( 36485 PWs)   bands (ev):

   -44.1404 -44.1404 -22.2464 -22.2464 -22.2349 -22.2349 -22.0700 -22.0700
    -6.7428  -6.7280  -6.2233  -6.2161  -6.1361  -6.1319  -5.2185  -5.2181
    -4.4565  -4.4361  -0.2094  -0.1958   0.3979   0.4006   1.0047   1.0193
     1.4735   1.5785   2.0788   2.1403   2.3587   2.3892   2.6218   2.7212
     2.9344   3.0589   3.0941   3.1816   3.5015   3.5564   3.6544   3.6997
     4.0282   4.2508   6.1983   6.2447   6.5515   6.6401   7.2110   7.2112
     7.4490   7.4507

          k = 1.0162 0.0000-0.2971 ( 36514 PWs)   bands (ev):

   -44.1404 -44.1404 -22.2464 -22.2464 -22.2349 -22.2349 -22.0700 -22.0700
    -6.7338  -6.7338  -6.2370  -6.2370  -6.1181  -6.1181  -5.2165  -5.2165
    -4.4488  -4.4488  -0.2644  -0.2644   0.5888   0.5888   0.9721   0.9721
     1.5104   1.5104   1.9011   1.9011   2.3411   2.3411   2.7297   2.7297
     2.9011   2.9011   3.1633   3.1633   3.6378   3.6378   3.7896   3.7896
     4.3147   4.3147   5.8371   5.8371   6.5014   6.5014   7.2253   7.2253
     7.5482   7.5482

          k = 1.2703 0.0645 0.0000 ( 36468 PWs)   bands (ev):

   -44.1407 -44.1407 -22.2485 -22.2485 -22.2254 -22.2254 -22.0711 -22.0710
    -7.0802  -6.8524  -6.7682  -6.6177  -5.7281  -5.4890  -5.1566  -5.1451
    -4.5286  -4.4640  -0.1760   0.0281   0.2691   0.8886   0.9687   1.2651
     1.5058   1.7154   2.1513   2.1666   2.2216   2.2851   2.4225   2.8723
     2.9785   3.1897   3.3749   3.4657   3.5054   3.5960   3.6041   3.6880
     4.0514   4.4929   6.1007   6.4462   6.5420   6.7761   7.0140   7.1344
     7.3127   7.5765

          k = 1.2703 0.0645 0.1485 ( 36490 PWs)   bands (ev):

   -44.1407 -44.1407 -22.2485 -22.2485 -22.2254 -22.2254 -22.0711 -22.0711
    -7.0581  -6.9129  -6.7215  -6.6307  -5.6887  -5.5176  -5.1621  -5.1511
    -4.5171  -4.4720  -0.1458   0.1613   0.1717   0.8373   0.9103   1.2134
     1.5380   1.6298   1.9912   2.1918   2.2376   2.5957   2.6304   2.9299
     2.9404   3.0936   3.2049   3.3123   3.4801   3.5393   3.7671   3.8356
     4.0388   4.4804   5.8652   6.4859   6.6629   6.8521   6.9773   7.1420
     7.1906   7.5520

          k = 1.2703 0.0645-0.2971 ( 36480 PWs)   bands (ev):

   -44.1407 -44.1407 -22.2485 -22.2485 -22.2254 -22.2254 -22.0711 -22.0711
    -6.9970  -6.9970  -6.6671  -6.6671  -5.5982  -5.5982  -5.1618  -5.1618
    -4.4930  -4.4930  -0.0183  -0.0183   0.4859   0.4859   1.0425   1.0425
     1.5726   1.5726   2.1024   2.1024   2.4783   2.4783   2.8325   2.8325
     3.0177   3.0177   3.1545   3.1545   3.5882   3.5882   3.8880   3.8880
     4.1259   4.1259   6.2590   6.2590   6.5067   6.5067   7.1365   7.1365
     7.4360   7.4360

          k =-0.5081-0.3869 0.0000 ( 36463 PWs)   bands (ev):

   -44.1416 -44.1416 -22.2533 -22.2532 -22.2024 -22.2024 -22.0738 -22.0737
    -7.6253  -7.4101  -6.9065  -6.7720  -5.9281  -5.2485  -5.0224  -4.6578
    -4.5739  -4.4753   0.1043   0.5311   0.6787   1.0396   1.1870   1.5383
     1.6524   1.7575   1.8955   2.0534   2.1714   2.3951   2.5161   3.2892
     3.4687   3.5213   3.5462   3.6219   3.7181   3.7269   3.9599   4.1248
     4.3062   4.9402   5.7524   6.0653   6.2757   6.8067   6.8540   6.8916
     7.3646   7.4775

          k =-0.5081-0.3869 0.1485 ( 36477 PWs)   bands (ev):

   -44.1416 -44.1416 -22.2533 -22.2532 -22.2024 -22.2024 -22.0738 -22.0737
    -7.6006  -7.4516  -6.8778  -6.7860  -5.8612  -5.4317  -4.8811  -4.6241
    -4.6190  -4.4850   0.1593   0.5211   0.7605   0.8706   1.1770   1.3338
     1.6150   1.7116   1.9718   2.0438   2.3820   2.5200   2.8465   3.2273
     3.4588   3.4733   3.5086   3.5638   3.6630   3.7464   3.9221   4.1177
     4.2170   4.5195   6.1720   6.2876   6.3449   6.7344   6.8067   6.9286
     7.1853   7.4830

          k =-0.5081-0.3869-0.2971 ( 36492 PWs)   bands (ev):

   -44.1416 -44.1416 -22.2533 -22.2533 -22.2024 -22.2024 -22.0737 -22.0737
    -7.5338  -7.5338  -6.8253  -6.8253  -5.6787  -5.6787  -4.7302  -4.7302
    -4.5401  -4.5401   0.3286   0.3286   0.9695   0.9695   0.9966   0.9966
     1.6550   1.6550   2.0103   2.0103   2.7415   2.7415   3.1018   3.1018
     3.3673   3.3673   3.5102   3.5102   3.6815   3.6815   3.9183   3.9183
     4.2523   4.2523   6.3901   6.3901   6.6933   6.6933   6.8162   6.8162
     7.2429   7.2430

          k =-0.2541-0.3224 0.0000 ( 36485 PWs)   bands (ev):

   -44.1425 -44.1425 -22.2580 -22.2579 -22.1794 -22.1794 -22.0765 -22.0763
    -7.9876  -7.7645  -7.0545  -6.8922  -6.1152  -5.3712  -4.8452  -4.7555
    -4.6819  -3.9646   0.3847   0.9045   0.9996   1.1238   1.3353   1.5972
     1.6328   1.6664   1.8486   2.4893   2.5642   3.2169   3.4147   3.5505
     3.6089   3.6978   3.7190   3.8645   3.9562   4.1343   4.1800   4.2810
     4.3277   4.6682   6.0539   6.0592   6.3181   6.5490   6.5597   6.8048
     6.9317   7.0619

          k =-0.2541-0.3224 0.1485 ( 36445 PWs)   bands (ev):

   -44.1425 -44.1425 -22.2580 -22.2579 -22.1794 -22.1794 -22.0764 -22.0763
    -7.9616  -7.8067  -7.0199  -6.9086  -6.0446  -5.5621  -4.7944  -4.7018
    -4.5858  -4.0500   0.4487   0.8543   0.9384   1.1684   1.2969   1.3126
     1.7399   1.7662   2.1963   2.4924   2.5539   2.9527   3.4160   3.5008
     3.5435   3.5770   3.6571   3.9047   3.9398   4.1128   4.2639   4.3197
     4.6569   4.7977   5.8748   6.0466   6.1412   6.3672   6.4965   6.7718
     7.1422   7.2315

          k =-0.2541-0.3224-0.2971 ( 36442 PWs)   bands (ev):

   -44.1425 -44.1425 -22.2580 -22.2580 -22.1794 -22.1794 -22.0764 -22.0764
    -7.8917  -7.8917  -6.9558  -6.9558  -5.8439  -5.8439  -4.7462  -4.7462
    -4.2816  -4.2816   0.6273   0.6273   1.0479   1.0479   1.2446   1.2446
     1.8598   1.8598   2.4692   2.4692   2.6539   2.6539   3.2739   3.2739
     3.5470   3.5470   3.8050   3.8050   4.0731   4.0731   4.2989   4.2989
     4.9802   4.9802   5.7351   5.7351   6.1966   6.1966   6.5813   6.5813
     7.3472   7.3472

          k = 0.0000-0.2579 0.0000 ( 36445 PWs)   bands (ev):

   -44.1429 -44.1429 -22.2599 -22.2599 -22.1698 -22.1698 -22.0776 -22.0774
    -8.1138  -7.8857  -7.1197  -6.9397  -6.1723  -5.4195  -4.8377  -4.7678
    -4.7231  -3.7905   0.3023   0.7886   0.9662   1.2137   1.3689   1.6350
     1.9690   2.1164   2.2688   2.8178   2.9281   3.0081   3.2695   3.4943
     3.5540   3.6649   3.8688   3.9569   4.1583   4.2567   4.3319   4.6835
     4.7175   5.3037   5.7020   5.9741   6.0204   6.0287   6.0969   6.7907
     7.0642   7.1165

          k = 0.0000-0.2579 0.1485 ( 36452 PWs)   bands (ev):

   -44.1429 -44.1429 -22.2599 -22.2599 -22.1698 -22.1698 -22.0775 -22.0774
    -8.0873  -7.9289  -7.0811  -6.9575  -6.1029  -5.6142  -4.8198  -4.7463
    -4.5421  -3.9000   0.3785   0.9334   0.9679   1.0234   1.1842   1.8829
     1.9870   2.0779   2.0902   2.8396   2.9162   3.0681   3.3361   3.4984
     3.6634   3.6800   3.9083   3.9224   4.1942   4.2448   4.2773   4.6861
     4.7117   4.8858   5.9020   5.9675   6.0072   6.1758   6.3769   6.6202
     6.8803   7.0282

          k = 0.0000-0.2579-0.2971 ( 36454 PWs)   bands (ev):

   -44.1429 -44.1429 -22.2599 -22.2599 -22.1698 -22.1698 -22.0775 -22.0775
    -8.0158  -8.0158  -7.0096  -7.0096  -5.9021  -5.9021  -4.7827  -4.7827
    -4.1849  -4.1849   0.6123   0.6123   1.0723   1.0723   1.3638   1.3638
     2.0347   2.0347   2.6174   2.6174   2.8827   2.8827   3.4809   3.4809
     3.7792   3.7792   4.0678   4.0678   4.1168   4.1168   4.3705   4.3705
     4.6977   4.6977   5.9528   5.9528   6.2682   6.2682   6.5158   6.5158
     6.7819   6.7819

          k = 1.5243 0.0000 0.0000 ( 36439 PWs)   bands (ev):

   -44.1416 -44.1416 -22.2533 -22.2532 -22.2024 -22.2024 -22.0738 -22.0737
    -7.6227  -7.4096  -6.9068  -6.7731  -5.9314  -5.2489  -5.0250  -4.6597
    -4.5708  -4.4758   0.0998   0.5364   0.6759   1.0374   1.1909   1.6069
     1.6745   1.7280   1.9106   2.0433   2.2106   2.3689   2.5106   3.2512
     3.4786   3.4849   3.5514   3.6175   3.7054   3.7562   3.8872   4.1490
     4.3004   4.9449   5.7487   6.0286   6.3070   6.8180   6.8554   6.9537
     7.3252   7.5204

          k = 1.5243 0.0000 0.1485 ( 36476 PWs)   bands (ev):

   -44.1416 -44.1416 -22.2533 -22.2532 -22.2024 -22.2024 -22.0738 -22.0737
    -7.5982  -7.4506  -6.8787  -6.7873  -5.8637  -5.4323  -4.8845  -4.6221
    -4.6209  -4.4836   0.1563   0.5271   0.7587   0.8643   1.1782   1.3409
     1.7024   1.7179   1.9627   2.0197   2.4269   2.4903   2.8446   3.1953
     3.4117   3.4817   3.5136   3.5601   3.6772   3.7308   3.9015   4.1357
     4.1813   4.5281   6.1468   6.3035   6.3386   6.7053   6.8445   7.0001
     7.1408   7.5023

          k = 1.5243 0.0000-0.2971 ( 36508 PWs)   bands (ev):

   -44.1416 -44.1416 -22.2533 -22.2533 -22.2024 -22.2024 -22.0737 -22.0737
    -7.5319  -7.5319  -6.8268  -6.8268  -5.6801  -5.6801  -4.7333  -4.7333
    -4.5380  -4.5380   0.3292   0.3292   0.9672   0.9672   0.9959   0.9959
     1.7138   1.7138   1.9864   1.9864   2.7681   2.7681   3.0564   3.0564
     3.3686   3.3686   3.4989   3.4989   3.6766   3.6766   3.9195   3.9195
     4.2407   4.2407   6.3771   6.3771   6.6945   6.6945   6.8214   6.8214
     7.2616   7.2616

          k =-0.2541-0.4514 0.0000 ( 36444 PWs)   bands (ev):

   -44.1425 -44.1425 -22.2580 -22.2579 -22.1794 -22.1794 -22.0765 -22.0763
    -7.9834  -7.7637  -7.0514  -6.8930  -6.1275  -5.3745  -4.8579  -4.7513
    -4.6767  -3.9654   0.3968   0.9147   0.9895   1.2476   1.3416   1.6590
     1.6596   1.6886   1.8847   2.4165   2.4927   3.2469   3.4007   3.4700
     3.4846   3.6912   3.7811   3.8659   3.9224   4.0657   4.1021   4.2204
     4.3208   4.6949   6.0796   6.1307   6.3420   6.5659   6.5832   6.8423
     6.8502   7.0291

          k =-0.2541-0.4514 0.1485 ( 36461 PWs)   bands (ev):

   -44.1425 -44.1425 -22.2580 -22.2579 -22.1794 -22.1794 -22.0764 -22.0763
    -7.9577  -7.8050  -7.0184  -6.9096  -6.0548  -5.5658  -4.8057  -4.6983
    -4.5823  -4.0501   0.4605   0.8592   0.9420   1.2562   1.3305   1.3798
     1.7558   1.7863   2.2490   2.4225   2.4775   2.9752   3.3514   3.3999
     3.5234   3.5355   3.7411   3.8842   3.9105   3.9786   4.2393   4.2944
     4.6590   4.8096   5.8737   6.0585   6.1594   6.3774   6.5635   6.7427
     7.1408   7.2182

          k =-0.2541-0.4514-0.2971 ( 36490 PWs)   bands (ev):

   -44.1425 -44.1425 -22.2580 -22.2580 -22.1794 -22.1794 -22.0764 -22.0764
    -7.8887  -7.8887  -6.9564  -6.9564  -5.8503  -5.8503  -4.7499  -4.7499
    -4.2801  -4.2801   0.6369   0.6369   1.0560   1.0560   1.3366   1.3366
     1.8744   1.8744   2.4309   2.4309   2.6564   2.6564   3.2600   3.2600
     3.4318   3.4318   3.8622   3.8622   3.9934   3.9934   4.2684   4.2684
     4.9941   4.9941   5.7165   5.7165   6.1888   6.1888   6.6279   6.6279
     7.3428   7.3428

          k = 0.0000-0.3869 0.0000 ( 36477 PWs)   bands (ev):

   -44.1429 -44.1429 -22.2599 -22.2599 -22.1698 -22.1698 -22.0776 -22.0774
    -8.1085  -7.8847  -7.1135  -6.9406  -6.1913  -5.4255  -4.8580  -4.7571
    -4.7183  -3.7915   0.3242   0.7988   1.1132   1.2759   1.3935   1.7090
     1.9687   2.1151   2.2669   2.8368   2.9346   3.0340   3.1655   3.2518
     3.5067   3.6519   3.8408   3.9612   4.0191   4.0811   4.3323   4.6535
     4.7152   5.2811   5.7504   6.0480   6.0516   6.0724   6.1544   6.7566
     7.0403   7.0641

          k = 0.0000-0.3869 0.1485 ( 36452 PWs)   bands (ev):

   -44.1429 -44.1429 -22.2599 -22.2599 -22.1698 -22.1698 -22.0775 -22.0774
    -8.0823  -7.9268  -7.0772  -6.9584  -6.1191  -5.6209  -4.8339  -4.7410
    -4.5393  -3.9002   0.3993   0.9515   0.9977   1.1699   1.2583   1.8964
     1.9867   2.0892   2.1238   2.8566   2.9245   3.0362   3.1940   3.3344
     3.5130   3.7537   3.8958   3.9284   4.0654   4.1172   4.2344   4.6688
     4.7088   4.8847   5.9533   6.0150   6.0453   6.1910   6.3895   6.5922
     6.8830   6.9703

          k = 0.0000-0.3869-0.2971 ( 36454 PWs)   bands (ev):

   -44.1429 -44.1429 -22.2599 -22.2599 -22.1698 -22.1698 -22.0775 -22.0775
    -8.0120  -8.0120  -7.0091  -7.0091  -5.9127  -5.9127  -4.7872  -4.7872
    -4.1836  -4.1836   0.6342   0.6342   1.1880   1.1880   1.3815   1.3815
     2.0342   2.0342   2.6443   2.6443   2.8952   2.8952   3.2368   3.2368
     3.8296   3.8296   4.0139   4.0139   4.0465   4.0465   4.3302   4.3302
     4.6917   4.6917   5.9709   5.9709   6.2978   6.2978   6.5242   6.5242
     6.7409   6.7409

          k =-2.0325 0.0000 0.0000 ( 36452 PWs)   bands (ev):

   -44.1429 -44.1429 -22.2599 -22.2599 -22.1698 -22.1698 -22.0776 -22.0774
    -8.1062  -7.8843  -7.1112  -6.9406  -6.1993  -5.4279  -4.8656  -4.7514
    -4.7183  -3.7919   0.3302   0.8034   1.2404   1.2463   1.4031   1.7533
     1.9686   2.1146   2.2666   2.8451   2.9371   3.0492   3.0630   3.1331
     3.4819   3.8132   3.8290   3.8769   3.9646   3.9944   4.3324   4.6411
     4.7143   5.2738   5.7702   6.0561   6.0887   6.0923   6.1724   6.7177
     7.0251   7.0640

          k =-2.0325 0.0000 0.1485 ( 36456 PWs)   bands (ev):

   -44.1429 -44.1429 -22.2599 -22.2599 -22.1698 -22.1698 -22.0775 -22.0774
    -8.0803  -7.9259  -7.0758  -6.9585  -6.1259  -5.6236  -4.8393  -4.7392
    -4.5382  -3.9003   0.4048   0.9592   1.0098   1.2561   1.2847   1.9026
     1.9866   2.0889   2.1470   2.8641   2.9278   2.9837   3.0764   3.3031
     3.4826   3.8589   3.8847   3.9462   3.9794   4.0200   4.2298   4.6619
     4.7077   4.8847   5.9769   6.0377   6.0521   6.1973   6.3920   6.5674
     6.8841   6.9535

          k =-2.0325 0.0000-0.2971 ( 36460 PWs)   bands (ev):

   -44.1429 -44.1429 -22.2599 -22.2599 -22.1698 -22.1698 -22.0775 -22.0775
    -8.0103  -8.0103  -7.0090  -7.0090  -5.9171  -5.9171  -4.7890  -4.7890
    -4.1830  -4.1830   0.6401   0.6401   1.2474   1.2474   1.3912   1.3912
     2.0340   2.0340   2.6518   2.6518   2.9005   2.9005   3.1235   3.1235
     3.8989   3.8989   3.9329   3.9329   4.0374   4.0374   4.3161   4.3161
     4.6893   4.6893   5.9739   5.9739   6.3089   6.3089   6.5278   6.5278
     6.7226   6.7226

     the Fermi energy is     5.4993 ev

!    total energy              =   -4240.94506327 Ry

     total all-electron energy =   -150287.638758 Ry
     estimated scf accuracy    <          1.3E-11 Ry
     smearing contrib. (-TS)   =       0.00000000 Ry
     internal energy E=F+TS    =   -4240.94506327 Ry

     The total energy is F=E-TS. E is the sum of the following terms:
     one-electron contribution =    -168.08367268 Ry
     hartree contribution      =     117.50344087 Ry
     xc contribution           =    -201.57509789 Ry
     ewald contribution        =    -221.25690185 Ry
     one-center paw contrib.   =   -3767.53283172 Ry

     convergence has been achieved in  18 iterations

     Forces acting on atoms (cartesian axes, Ry/au):

     atom    1 type  1   force =    -0.00000000    0.01233848    0.00000000
     atom    2 type  1   force =     0.00000000   -0.01233848    0.00000000
     atom    3 type  2   force =     0.00000000   -0.00008398    0.00000000
     atom    4 type  2   force =    -0.00000000    0.00008398    0.00000000
     atom    5 type  2   force =     0.00000000   -0.00284114   -0.00147273
     atom    6 type  2   force =     0.00000000    0.00284114    0.00147273
     atom    7 type  2   force =     0.00000000   -0.00284114    0.00147273
     atom    8 type  2   force =     0.00000000    0.00284114   -0.00147273
     atom    9 type  2   force =     0.00000000   -0.02118703   -0.02362171
     atom   10 type  2   force =     0.00000000    0.02118703    0.02362171
     atom   11 type  2   force =     0.00000000   -0.02118703    0.02362171
     atom   12 type  2   force =     0.00000000    0.02118703   -0.02362171

     Total force =     0.066128     Total SCF correction =     0.000005


     Computing stress (Cartesian axis) and pressure

          total   stress  (Ry/bohr**3)                   (kbar)     P=        5.51
   0.00003886   0.00000000   0.00000000            5.72        0.00        0.00
  -0.00000000   0.00002304   0.00000000           -0.00        3.39        0.00
   0.00000000   0.00000000   0.00005043            0.00        0.00        7.42

 
     init_run     :     23.11s CPU     23.68s WALL (       1 calls)
     electrons    :    985.89s CPU    997.29s WALL (       1 calls)
     forces       :      7.07s CPU      7.29s WALL (       1 calls)
     stress       :     46.48s CPU     47.13s WALL (       1 calls)

     Called by init_run:
     wfcinit      :     18.23s CPU     18.46s WALL (       1 calls)
     potinit      :      1.51s CPU      1.56s WALL (       1 calls)
     hinit0       :      1.69s CPU      1.74s WALL (       1 calls)

     Called by electrons:
     c_bands      :    814.79s CPU    818.32s WALL (      19 calls)
     sum_band     :    143.37s CPU    147.60s WALL (      19 calls)
     v_of_rho     :      6.06s CPU      6.34s WALL (      19 calls)
     newd         :     15.77s CPU     19.32s WALL (      19 calls)
     PAW_pot      :      6.22s CPU      6.23s WALL (      19 calls)
     mix_rho      :      0.90s CPU      0.94s WALL (      19 calls)

     Called by c_bands:
     init_us_2    :     12.31s CPU     12.36s WALL (    2583 calls)
     cegterg      :    736.26s CPU    739.15s WALL (    1197 calls)

     Called by *egterg:
     cdiaghg      :     25.75s CPU     25.81s WALL (    7585 calls)
     h_psi        :    570.94s CPU    573.73s WALL (    7711 calls)
     s_psi        :     44.56s CPU     44.63s WALL (    7711 calls)
     g_psi        :      1.98s CPU      1.99s WALL (    6451 calls)

     Called by h_psi:
     h_psi:calbec :     38.87s CPU     38.94s WALL (    7711 calls)
     vloc_psi     :    484.44s CPU    487.00s WALL (    7711 calls)
     add_vuspsi   :     44.26s CPU     44.33s WALL (    7711 calls)

     General routines
     calbec       :     52.82s CPU     52.93s WALL (    9223 calls)
     fft          :      3.90s CPU      4.02s WALL (     271 calls)
     ffts         :      0.10s CPU      0.10s WALL (      38 calls)
     fftw         :    443.97s CPU    446.28s WALL (  419632 calls)
     interpolate  :      0.34s CPU      0.34s WALL (      19 calls)
 
     Parallel routines
 
     PWSCF        :  17m42.79s CPU  17m55.73s WALL

 
   This run was terminated on:  15:33:23  19Nov2021            

=------------------------------------------------------------------------------=
   JOB DONE.
=------------------------------------------------------------------------------=
