
     Program PWSCF v.6.8 starts on 19Nov2021 at 15:15: 2 

     This program is part of the open-source Quantum ESPRESSO suite
     for quantum simulation of materials; please cite
         "P. Giannozzi et al., J. Phys.:Condens. Matter 21 395502 (2009);
         "P. Giannozzi et al., J. Phys.:Condens. Matter 29 465901 (2017);
         "P. Giannozzi et al., J. Chem. Phys. 152 154105 (2020);
          URL http://www.quantum-espresso.org", 
     in publications or presentations arising from this work. More details at
     http://www.quantum-espresso.org/quote

     Parallel version (MPI), running on    10 processors

     MPI processes distributed on     1 nodes
     R & G space division:  proc/nbgrp/npool/nimage =      10
     68681 MiB available memory on the printing compute node when the environment starts
 
     Waiting for input...
     Reading input from standard input

     Current dimensions of program PWSCF are:
     Max number of different atomic species (ntypx) = 10
     Max number of k-points (npk) =  40000
     Max angular momentum in pseudopotentials (lmaxx) =  4
     file Zr.pbe-spn-kjpaw_psl.1.0.0.UPF: wavefunction(s)  4S 4P renormalized
     file Te.pbe-n-kjpaw_psl.1.0.0.UPF: wavefunction(s)  5S 5P renormalized
     Message from routine setup:
     using ibrav=0 with symmetry is DISCOURAGED, use correct ibrav instead

     Subspace diagonalization in iterative solution of the eigenvalue problem:
     a serial algorithm will be used

 
     Parallelization info
     --------------------
     sticks:   dense  smooth     PW     G-vecs:    dense   smooth      PW
     Min         734     293     87               115340    29174    4753
     Max         735     295     88               115345    29176    4760
     Sum        7345    2937    873              1153415   291749   47557
 
     Using Slab Decomposition
 


     bravais-lattice index     =            0
     lattice parameter (alat)  =      15.5510  a.u.
     unit-cell volume          =    3018.5011 (a.u.)^3
     number of atoms/cell      =           12
     number of atomic types    =            2
     number of electrons       =        84.00
     number of Kohn-Sham states=           50
     kinetic-energy cutoff     =      80.0000  Ry
     charge density cutoff     =     800.0000  Ry
     scf convergence threshold =      1.0E-10
     mixing beta               =       0.7000
     number of iterations used =            8  plain     mixing
     Exchange-correlation= SLA  PW   PBX  PBC
                           (   1   4   3   4   0   0   0)

     celldm(1)=  15.551040  celldm(2)=   0.000000  celldm(3)=   0.000000
     celldm(4)=   0.000000  celldm(5)=   0.000000  celldm(6)=   0.000000

     crystal axes: (cart. coord. in units of alat)
               a(1) = (   0.246007  -0.969268   0.000000 )  
               a(2) = (   0.246007   0.969268   0.000000 )  
               a(3) = (   0.000000   0.000000   1.683031 )  

     reciprocal axes: (cart. coord. in units 2 pi/alat)
               b(1) = (  2.032465 -0.515853  0.000000 )  
               b(2) = (  2.032465  0.515853  0.000000 )  
               b(3) = (  0.000000  0.000000  0.594166 )  


     PseudoPot. # 1 for Zr read from file:
     pseudo/Zr.pbe-spn-kjpaw_psl.1.0.0.UPF
     MD5 check sum: 02112c41713a0468aff2bb39ef194e36
     Pseudo is Projector augmented-wave + core cor, Zval = 12.0
     Generated using &quot;atomic&quot; code by A. Dal Corso  v.6.2.2
     Shape of augmentation charge: PSQ
     Using radial grid of 1225 points,  6 beta functions with: 
                l(1) =   0
                l(2) =   0
                l(3) =   1
                l(4) =   1
                l(5) =   2
                l(6) =   2
     Q(r) pseudized with 0 coefficients 


     PseudoPot. # 2 for Te read from file:
     pseudo/Te.pbe-n-kjpaw_psl.1.0.0.UPF
     MD5 check sum: 66247bff2bd9dbf220fbb0bf5ab56e9d
     Pseudo is Projector augmented-wave + core cor, Zval =  6.0
     Generated using &quot;atomic&quot; code by A. Dal Corso  v.6.3
     Shape of augmentation charge: PSQ
     Using radial grid of 1245 points,  6 beta functions with: 
                l(1) =   0
                l(2) =   0
                l(3) =   1
                l(4) =   1
                l(5) =   2
                l(6) =   2
     Q(r) pseudized with 0 coefficients 


     atomic species   valence    mass     pseudopotential
        Zr            12.00    91.22000     Zr( 1.00)
        Te             6.00   127.60000     Te( 1.00)

      8 Sym. Ops., with inversion, found ( 4 have fractional translation)



   Cartesian axes

     site n.     atom                  positions (alat units)
         1           Zr  tau(   1) = (   0.0000000   0.6037385   0.4207578  )
         2           Zr  tau(   2) = (   0.2460067   0.3655296   1.2622733  )
         3           Te  tau(   3) = (   0.2460067   0.3342108   0.4207578  )
         4           Te  tau(   4) = (   0.0000000   0.6350573   1.2622733  )
         5           Te  tau(   5) = (   0.2460067   0.8106765   0.2526441  )
         6           Te  tau(   6) = (   0.0000000   0.1585916   1.4303870  )
         7           Te  tau(   7) = (   0.2460067   0.8106765   0.5888715  )
         8           Te  tau(   8) = (   0.0000000   0.1585916   1.0941596  )
         9           Te  tau(   9) = (   0.0000000   0.4181660   0.7340061  )
        10           Te  tau(  10) = (   0.2460067   0.5511021   0.9490249  )
        11           Te  tau(  11) = (   0.0000000   0.4181660   0.1075094  )
        12           Te  tau(  12) = (   0.2460067   0.5511021   1.5755217  )

     number of k points=    63  Methfessel-Paxton smearing, width (Ry)=  0.0030
                       cart. coord. in units 2pi/alat
        k(    1) = (   0.0000000   0.0000000   0.0000000), wk =   0.0078125
        k(    2) = (   0.0000000   0.0000000   0.1485415), wk =   0.0156250
        k(    3) = (   0.0000000   0.0000000  -0.2970830), wk =   0.0078125
        k(    4) = (   0.2540581   0.0644816   0.0000000), wk =   0.0312500
        k(    5) = (   0.2540581   0.0644816   0.1485415), wk =   0.0625000
        k(    6) = (   0.2540581   0.0644816  -0.2970830), wk =   0.0312500
        k(    7) = (   0.5081162   0.1289633   0.0000000), wk =   0.0312500
        k(    8) = (   0.5081162   0.1289633   0.1485415), wk =   0.0625000
        k(    9) = (   0.5081162   0.1289633  -0.2970830), wk =   0.0312500
        k(   10) = (   0.7621743   0.1934449   0.0000000), wk =   0.0312500
        k(   11) = (   0.7621743   0.1934449   0.1485415), wk =   0.0625000
        k(   12) = (   0.7621743   0.1934449  -0.2970830), wk =   0.0312500
        k(   13) = (  -1.0162324  -0.2579266   0.0000000), wk =   0.0156250
        k(   14) = (  -1.0162324  -0.2579266   0.1485415), wk =   0.0312500
        k(   15) = (  -1.0162324  -0.2579266  -0.2970830), wk =   0.0156250
        k(   16) = (   0.5081162   0.0000000   0.0000000), wk =   0.0156250
        k(   17) = (   0.5081162   0.0000000   0.1485415), wk =   0.0312500
        k(   18) = (   0.5081162   0.0000000  -0.2970830), wk =   0.0156250
        k(   19) = (   0.7621743   0.0644816   0.0000000), wk =   0.0312500
        k(   20) = (   0.7621743   0.0644816   0.1485415), wk =   0.0625000
        k(   21) = (   0.7621743   0.0644816  -0.2970830), wk =   0.0312500
        k(   22) = (   1.0162324   0.1289633   0.0000000), wk =   0.0312500
        k(   23) = (   1.0162324   0.1289633   0.1485415), wk =   0.0625000
        k(   24) = (   1.0162324   0.1289633  -0.2970830), wk =   0.0312500
        k(   25) = (  -0.7621743  -0.3224082   0.0000000), wk =   0.0312500
        k(   26) = (  -0.7621743  -0.3224082   0.1485415), wk =   0.0625000
        k(   27) = (  -0.7621743  -0.3224082  -0.2970830), wk =   0.0312500
        k(   28) = (  -0.5081162  -0.2579266   0.0000000), wk =   0.0312500
        k(   29) = (  -0.5081162  -0.2579266   0.1485415), wk =   0.0625000
        k(   30) = (  -0.5081162  -0.2579266  -0.2970830), wk =   0.0312500
        k(   31) = (  -0.2540581  -0.1934449   0.0000000), wk =   0.0312500
        k(   32) = (  -0.2540581  -0.1934449   0.1485415), wk =   0.0625000
        k(   33) = (  -0.2540581  -0.1934449  -0.2970830), wk =   0.0312500
        k(   34) = (   0.0000000  -0.1289633   0.0000000), wk =   0.0156250
        k(   35) = (   0.0000000  -0.1289633   0.1485415), wk =   0.0312500
        k(   36) = (   0.0000000  -0.1289633  -0.2970830), wk =   0.0156250
        k(   37) = (   1.0162324   0.0000000   0.0000000), wk =   0.0156250
        k(   38) = (   1.0162324   0.0000000   0.1485415), wk =   0.0312500
        k(   39) = (   1.0162324   0.0000000  -0.2970830), wk =   0.0156250
        k(   40) = (   1.2702905   0.0644816   0.0000000), wk =   0.0312500
        k(   41) = (   1.2702905   0.0644816   0.1485415), wk =   0.0625000
        k(   42) = (   1.2702905   0.0644816  -0.2970830), wk =   0.0312500
        k(   43) = (  -0.5081162  -0.3868899   0.0000000), wk =   0.0312500
        k(   44) = (  -0.5081162  -0.3868899   0.1485415), wk =   0.0625000
        k(   45) = (  -0.5081162  -0.3868899  -0.2970830), wk =   0.0312500
        k(   46) = (  -0.2540581  -0.3224082   0.0000000), wk =   0.0312500
        k(   47) = (  -0.2540581  -0.3224082   0.1485415), wk =   0.0625000
        k(   48) = (  -0.2540581  -0.3224082  -0.2970830), wk =   0.0312500
        k(   49) = (   0.0000000  -0.2579266   0.0000000), wk =   0.0156250
        k(   50) = (   0.0000000  -0.2579266   0.1485415), wk =   0.0312500
        k(   51) = (   0.0000000  -0.2579266  -0.2970830), wk =   0.0156250
        k(   52) = (   1.5243485   0.0000000   0.0000000), wk =   0.0156250
        k(   53) = (   1.5243485   0.0000000   0.1485415), wk =   0.0312500
        k(   54) = (   1.5243485   0.0000000  -0.2970830), wk =   0.0156250
        k(   55) = (  -0.2540581  -0.4513715   0.0000000), wk =   0.0312500
        k(   56) = (  -0.2540581  -0.4513715   0.1485415), wk =   0.0625000
        k(   57) = (  -0.2540581  -0.4513715  -0.2970830), wk =   0.0312500
        k(   58) = (   0.0000000  -0.3868899   0.0000000), wk =   0.0156250
        k(   59) = (   0.0000000  -0.3868899   0.1485415), wk =   0.0312500
        k(   60) = (   0.0000000  -0.3868899  -0.2970830), wk =   0.0156250
        k(   61) = (  -2.0324647   0.0000000   0.0000000), wk =   0.0078125
        k(   62) = (  -2.0324647   0.0000000   0.1485415), wk =   0.0156250
        k(   63) = (  -2.0324647   0.0000000  -0.2970830), wk =   0.0078125

     Dense  grid:  1153415 G-vectors     FFT dimensions: ( 144, 144, 240)

     Smooth grid:   291749 G-vectors     FFT dimensions: (  90,  90, 150)

     Estimated max dynamical RAM per process >     657.19 MB

     Estimated total dynamical RAM >       6.42 GB

     Initial potential from superposition of free atoms

     starting charge   83.99353, renormalised to   84.00000
     Starting wfcs are   66 randomized atomic wfcs
     Checking if some PAW data can be deallocated... 

     total cpu time spent up to now is       18.7 secs

     Self-consistent Calculation

     iteration #  1     ecut=    80.00 Ry     beta= 0.70
     Davidson diagonalization with overlap
     ethr =  1.00E-02,  avg # of iterations =  2.1

     Threshold (ethr) on eigenvalues was too large:
     Diagonalizing with lowered threshold

     Davidson diagonalization with overlap
     ethr =  4.30E-04,  avg # of iterations =  4.0

     total cpu time spent up to now is      101.3 secs

     total energy              =   -4240.72772318 Ry
     estimated scf accuracy    <       0.43896489 Ry

     iteration #  2     ecut=    80.00 Ry     beta= 0.70
     Davidson diagonalization with overlap
     ethr =  5.23E-04,  avg # of iterations =  7.9

     total cpu time spent up to now is      163.8 secs

     total energy              =   -4240.63368051 Ry
     estimated scf accuracy    <       2.03352100 Ry

     iteration #  3     ecut=    80.00 Ry     beta= 0.70
     Davidson diagonalization with overlap
     ethr =  5.23E-04,  avg # of iterations =  5.4

     total cpu time spent up to now is      215.8 secs

     total energy              =   -4240.93803436 Ry
     estimated scf accuracy    <       0.00854079 Ry

     iteration #  4     ecut=    80.00 Ry     beta= 0.70
     Davidson diagonalization with overlap
     c_bands:  1 eigenvalues not converged
     c_bands:  2 eigenvalues not converged
     c_bands:  2 eigenvalues not converged
     c_bands:  2 eigenvalues not converged
     c_bands:  1 eigenvalues not converged
     c_bands:  2 eigenvalues not converged
     c_bands:  1 eigenvalues not converged
     c_bands:  1 eigenvalues not converged
     c_bands:  1 eigenvalues not converged
     c_bands:  2 eigenvalues not converged
     c_bands:  2 eigenvalues not converged
     c_bands:  3 eigenvalues not converged
     c_bands:  4 eigenvalues not converged
     c_bands:  2 eigenvalues not converged
     c_bands:  2 eigenvalues not converged
     c_bands:  1 eigenvalues not converged
     c_bands:  4 eigenvalues not converged
     c_bands:  4 eigenvalues not converged
     c_bands:  2 eigenvalues not converged
     c_bands:  1 eigenvalues not converged
     c_bands:  1 eigenvalues not converged
     c_bands:  1 eigenvalues not converged
     c_bands:  1 eigenvalues not converged
     c_bands:  1 eigenvalues not converged
     c_bands:  1 eigenvalues not converged
     ethr =  1.02E-05,  avg # of iterations = 17.9

     total cpu time spent up to now is      315.4 secs

     total energy              =   -4240.94861360 Ry
     estimated scf accuracy    <       0.04880368 Ry

     iteration #  5     ecut=    80.00 Ry     beta= 0.70
     Davidson diagonalization with overlap
     ethr =  1.02E-05,  avg # of iterations =  7.3

     total cpu time spent up to now is      368.4 secs

     total energy              =   -4240.95044155 Ry
     estimated scf accuracy    <       0.00863412 Ry

     iteration #  6     ecut=    80.00 Ry     beta= 0.70
     Davidson diagonalization with overlap
     ethr =  1.02E-05,  avg # of iterations =  3.1

     total cpu time spent up to now is      408.1 secs

     total energy              =   -4240.95115102 Ry
     estimated scf accuracy    <       0.00108200 Ry

     iteration #  7     ecut=    80.00 Ry     beta= 0.70
     Davidson diagonalization with overlap
     ethr =  1.29E-06,  avg # of iterations = 10.8

     total cpu time spent up to now is      476.1 secs

     total energy              =   -4240.95169254 Ry
     estimated scf accuracy    <       0.00125855 Ry

     iteration #  8     ecut=    80.00 Ry     beta= 0.70
     Davidson diagonalization with overlap
     ethr =  1.29E-06,  avg # of iterations =  2.3

     total cpu time spent up to now is      513.4 secs

     total energy              =   -4240.95173495 Ry
     estimated scf accuracy    <       0.00017416 Ry

     iteration #  9     ecut=    80.00 Ry     beta= 0.70
     Davidson diagonalization with overlap
     ethr =  2.07E-07,  avg # of iterations =  6.4

     total cpu time spent up to now is      564.5 secs

     total energy              =   -4240.95179333 Ry
     estimated scf accuracy    <       0.00002541 Ry

     iteration # 10     ecut=    80.00 Ry     beta= 0.70
     Davidson diagonalization with overlap
     ethr =  3.02E-08,  avg # of iterations =  3.1

     total cpu time spent up to now is      604.5 secs

     total energy              =   -4240.95179581 Ry
     estimated scf accuracy    <       0.00000365 Ry

     iteration # 11     ecut=    80.00 Ry     beta= 0.70
     Davidson diagonalization with overlap
     ethr =  4.35E-09,  avg # of iterations =  6.1

     total cpu time spent up to now is      657.5 secs

     total energy              =   -4240.95179774 Ry
     estimated scf accuracy    <       0.00000105 Ry

     iteration # 12     ecut=    80.00 Ry     beta= 0.70
     Davidson diagonalization with overlap
     ethr =  1.25E-09,  avg # of iterations =  2.1

     total cpu time spent up to now is      694.5 secs

     total energy              =   -4240.95179779 Ry
     estimated scf accuracy    <       0.00000015 Ry

     iteration # 13     ecut=    80.00 Ry     beta= 0.70
     Davidson diagonalization with overlap
     ethr =  1.74E-10,  avg # of iterations =  6.1

     total cpu time spent up to now is      749.0 secs

     total energy              =   -4240.95179787 Ry
     estimated scf accuracy    <       0.00000006 Ry

     iteration # 14     ecut=    80.00 Ry     beta= 0.70
     Davidson diagonalization with overlap
     ethr =  6.75E-11,  avg # of iterations =  1.5

     total cpu time spent up to now is      783.6 secs

     total energy              =   -4240.95179786 Ry
     estimated scf accuracy    <       0.00000002 Ry

     iteration # 15     ecut=    80.00 Ry     beta= 0.70
     Davidson diagonalization with overlap
     ethr =  2.93E-11,  avg # of iterations =  4.7

     total cpu time spent up to now is      827.3 secs

     End of self-consistent calculation

          k = 0.0000 0.0000 0.0000 ( 36359 PWs)   bands (ev):

   -44.1374 -44.1374 -22.2588 -22.2587 -22.1674 -22.1674 -22.0699 -22.0698
    -7.9864  -7.6959  -7.1286  -6.9026  -6.2231  -5.4145  -4.8475  -4.8195
    -4.7694  -3.8129   0.2965   0.7592   0.7950   1.1366   1.3916   1.5355
     2.1288   2.2986   2.3372   2.7688   2.9265   3.0038   3.3030   3.3510
     3.7556   3.8557   4.0203   4.0799   4.2917   4.3397   4.3950   4.6984
     4.7787   5.4359   5.6385   5.8616   5.9143   5.9199   6.0537   6.8027
     7.0237   7.2754

          k = 0.0000 0.0000 0.1485 ( 36415 PWs)   bands (ev):

   -44.1374 -44.1374 -22.2588 -22.2587 -22.1674 -22.1674 -22.0699 -22.0698
    -7.9555  -7.7577  -7.0719  -6.9213  -6.1524  -5.6356  -4.8145  -4.7772
    -4.5987  -3.9262   0.3686   0.8274   0.9060   0.9792   1.0935   1.8869
     2.0378   2.1516   2.2947   2.8047   2.9115   3.0910   3.4030   3.4183
     3.7387   3.9121   3.9960   4.0867   4.2240   4.3656   4.4093   4.6965
     4.7375   4.9460   5.8313   5.9132   5.9159   6.0907   6.4207   6.6270
     6.8408   7.1624

          k = 0.0000 0.0000-0.2971 ( 36410 PWs)   bands (ev):

   -44.1374 -44.1374 -22.2587 -22.2587 -22.1674 -22.1674 -22.0699 -22.0699
    -7.8699  -7.8699  -6.9799  -6.9799  -5.9433  -5.9433  -4.7959  -4.7959
    -4.2218  -4.2218   0.5919   0.5919   0.9470   0.9470   1.3468   1.3468
     2.2145   2.2145   2.6079   2.6079   2.8674   2.8674   3.5450   3.5450
     3.9121   3.9121   4.0606   4.0606   4.3354   4.3354   4.4030   4.4030
     4.7008   4.7008   5.9071   5.9071   6.2251   6.2251   6.4622   6.4622
     6.9027   6.9028

          k = 0.2541 0.0645 0.0000 ( 36396 PWs)   bands (ev):

   -44.1371 -44.1371 -22.2568 -22.2568 -22.1770 -22.1770 -22.0688 -22.0687
    -7.8655  -7.5788  -7.0606  -6.8543  -6.1622  -5.3677  -4.8773  -4.7755
    -4.7247  -3.9758   0.3810   0.8799   0.9219   1.1454   1.2507   1.4535
     1.6710   1.8182   1.8367   2.5780   2.6041   3.2149   3.2646   3.7196
     3.7607   3.7700   3.8490   3.8496   4.0459   4.2508   4.3146   4.3505
     4.4853   4.5664   5.8639   5.9785   6.1942   6.5560   6.6134   6.6740
     7.0244   7.1981

          k = 0.2541 0.0645 0.1485 ( 36423 PWs)   bands (ev):

   -44.1371 -44.1371 -22.2568 -22.2568 -22.1770 -22.1770 -22.0688 -22.0687
    -7.8351  -7.6402  -7.0080  -6.8712  -6.0905  -5.5828  -4.7843  -4.7344
    -4.6333  -4.0657   0.4415   0.9034   0.9302   0.9663   1.2004   1.3418
     1.7439   1.9117   2.1707   2.5701   2.5876   2.9547   3.3743   3.3828
     3.5405   3.8053   3.9462   3.9836   4.0429   4.1783   4.3626   4.3741
     4.6879   4.7938   5.8612   5.9671   6.1504   6.2525   6.3763   6.7657
     7.2153   7.2785

          k = 0.2541 0.0645-0.2971 ( 36436 PWs)   bands (ev):

   -44.1371 -44.1371 -22.2568 -22.2568 -22.1770 -22.1770 -22.0687 -22.0687
    -7.7509  -7.7509  -6.9243  -6.9243  -5.8824  -5.8824  -4.7576  -4.7576
    -4.3093  -4.3093   0.6242   0.6242   1.0322   1.0322   1.1322   1.1322
     1.9717   1.9717   2.4824   2.4824   2.6614   2.6614   3.2255   3.2255
     3.6505   3.6505   3.9690   3.9690   4.1341   4.1341   4.3817   4.3817
     4.9838   4.9838   5.7904   5.7904   6.1481   6.1481   6.4512   6.4512
     7.3877   7.3877

          k = 0.5081 0.1290 0.0000 ( 36499 PWs)   bands (ev):

   -44.1362 -44.1362 -22.2521 -22.2521 -22.2002 -22.2002 -22.0661 -22.0660
    -7.5156  -7.2368  -6.8992  -6.7309  -5.9805  -5.2568  -5.0326  -4.6623
    -4.6147  -4.4585   0.2636   0.5664   0.6534   1.1808   1.1954   1.3202
     1.6357   1.7031   1.8945   2.0960   2.1564   2.3071   2.4838   3.4016
     3.5028   3.5080   3.5829   3.5893   3.7720   3.8593   3.9553   4.1942
     4.3648   4.9775   5.6820   6.0984   6.1799   6.5987   6.6223   6.9900
     7.4512   7.5615

          k = 0.5081 0.1290 0.1485 ( 36476 PWs)   bands (ev):

   -44.1362 -44.1362 -22.2521 -22.2521 -22.2002 -22.2002 -22.0661 -22.0660
    -7.4869  -7.2994  -6.8533  -6.7444  -5.9103  -5.4559  -4.8757  -4.6460
    -4.6311  -4.4828   0.2973   0.5695   0.7584   0.9561   1.2324   1.3123
     1.4114   1.5675   2.0118   2.0947   2.3530   2.4524   2.8242   3.4049
     3.4325   3.4945   3.5142   3.6234   3.7336   3.7615   3.8551   4.2405
     4.3030   4.4862   6.1824   6.2179   6.3713   6.5993   6.6693   6.8564
     7.2948   7.5188

          k = 0.5081 0.1290-0.2971 ( 36466 PWs)   bands (ev):

   -44.1362 -44.1362 -22.2521 -22.2521 -22.2002 -22.2002 -22.0660 -22.0660
    -7.4067  -7.4067  -6.7861  -6.7861  -5.7178  -5.7178  -4.7266  -4.7266
    -4.5545  -4.5545   0.4281   0.4281   1.0003   1.0003   1.0439   1.0439
     1.4375   1.4375   2.0562   2.0562   2.6862   2.6862   3.1741   3.1741
     3.3993   3.3993   3.5639   3.5639   3.7292   3.7292   3.8593   3.8593
     4.3206   4.3206   6.4227   6.4227   6.5653   6.5653   6.8578   6.8578
     7.1775   7.1775

          k = 0.7622 0.1934 0.0000 ( 36521 PWs)   bands (ev):

   -44.1353 -44.1353 -22.2473 -22.2473 -22.2234 -22.2234 -22.0633 -22.0633
    -7.0093  -6.7495  -6.7028  -6.5541  -5.7453  -5.4357  -5.1846  -5.1282
    -4.5370  -4.5000  -0.0647   0.0182   0.3998   0.9701   0.9849   1.2817
     1.4847   1.6020   1.9901   2.1399   2.2359   2.2997   2.4298   2.7992
     2.9313   3.2626   3.3493   3.4791   3.5393   3.6685   3.7260   3.7957
     3.8193   4.5703   6.0023   6.3828   6.4470   6.8831   6.9035   6.9765
     7.3445   7.6327

          k = 0.7622 0.1934 0.1485 ( 36503 PWs)   bands (ev):

   -44.1353 -44.1353 -22.2473 -22.2473 -22.2234 -22.2234 -22.0633 -22.0633
    -6.9855  -6.8263  -6.6456  -6.5643  -5.6979  -5.4785  -5.1797  -5.1382
    -4.5289  -4.5033  -0.0506   0.1714   0.2856   0.8571   0.9771   1.2377
     1.4961   1.6135   1.9599   2.0486   2.1247   2.6068   2.6917   2.8758
     2.9054   3.0639   3.2713   3.3819   3.5212   3.6178   3.6867   3.9322
     3.9778   4.4903   5.8060   6.3856   6.6903   6.8093   6.9827   7.0051
     7.1241   7.6220

          k = 0.7622 0.1934-0.2971 ( 36522 PWs)   bands (ev):

   -44.1353 -44.1353 -22.2473 -22.2473 -22.2234 -22.2234 -22.0633 -22.0633
    -6.9191  -6.9191  -6.5947  -6.5947  -5.5865  -5.5865  -5.1610  -5.1610
    -4.5137  -4.5137   0.0792   0.0792   0.5034   0.5034   1.0825   1.0825
     1.5621   1.5621   2.0111   2.0111   2.3992   2.3992   2.8300   2.8300
     2.9799   2.9799   3.2989   3.2989   3.5977   3.5977   3.9212   3.9212
     4.0697   4.0697   6.2354   6.2354   6.4810   6.4810   7.0193   7.0193
     7.4859   7.4859

          k =-1.0162-0.2579 0.0000 ( 36506 PWs)   bands (ev):

   -44.1349 -44.1349 -22.2452 -22.2452 -22.2330 -22.2330 -22.0622 -22.0622
    -6.7305  -6.7102  -6.0957  -6.0845  -6.0561  -6.0501  -5.2709  -5.2704
    -4.4795  -4.4522  -0.0674  -0.0463   0.2465   0.2682   1.0112   1.0199
     1.4674   1.6655   2.2271   2.3900   2.4047   2.4247   2.8108   2.8193
     2.8197   2.8257   3.1970   3.2538   3.3179   3.3874   3.4629   3.6689
     3.8551   4.1370   6.6130   6.6456   6.6667   6.6877   7.0671   7.1638
     7.1677   7.2124

          k =-1.0162-0.2579 0.1485 ( 36506 PWs)   bands (ev):

   -44.1349 -44.1349 -22.2452 -22.2452 -22.2330 -22.2330 -22.0622 -22.0622
    -6.7264  -6.7119  -6.1207  -6.1130  -6.0297  -6.0252  -5.2686  -5.2683
    -4.4784  -4.4591  -0.1639  -0.1575   0.4553   0.4629   1.0070   1.0207
     1.4621   1.5939   2.0262   2.1383   2.3639   2.3972   2.6792   2.6860
     2.9347   3.0476   3.0845   3.1958   3.5531   3.5674   3.6139   3.7419
     4.0401   4.1795   6.1193   6.1384   6.5261   6.6026   7.1634   7.1787
     7.3734   7.4346

          k =-1.0162-0.2579-0.2971 ( 36528 PWs)   bands (ev):

   -44.1349 -44.1349 -22.2452 -22.2452 -22.2330 -22.2330 -22.0622 -22.0622
    -6.7179  -6.7179  -6.1332  -6.1332  -6.0122  -6.0122  -5.2662  -5.2662
    -4.4716  -4.4716  -0.2236  -0.2236   0.6741   0.6741   0.9637   0.9637
     1.5157   1.5157   1.8373   1.8373   2.3650   2.3650   2.7648   2.7648
     2.8700   2.8700   3.1733   3.1733   3.6364   3.6364   3.8026   3.8026
     4.3307   4.3307   5.7142   5.7142   6.4745   6.4745   7.1894   7.1894
     7.4938   7.4938

          k = 0.5081 0.0000 0.0000 ( 36503 PWs)   bands (ev):

   -44.1362 -44.1362 -22.2521 -22.2521 -22.2002 -22.2002 -22.0661 -22.0660
    -7.5187  -7.2373  -6.8998  -6.7281  -5.9772  -5.2566  -5.0299  -4.6563
    -4.6220  -4.4580   0.2688   0.5648   0.6488   1.1764   1.2341   1.2472
     1.6311   1.6977   1.8808   2.1019   2.1581   2.2880   2.4846   3.3937
     3.5218   3.5565   3.5589   3.5843   3.7808   3.9143   3.9385   4.2317
     4.3670   4.9715   5.6879   6.0750   6.2152   6.5610   6.5705   7.0264
     7.4618   7.5798

          k = 0.5081 0.0000 0.1485 ( 36453 PWs)   bands (ev):

   -44.1362 -44.1362 -22.2521 -22.2521 -22.2002 -22.2002 -22.0661 -22.0660
    -7.4899  -7.3009  -6.8526  -6.7416  -5.9077  -5.4554  -4.8717  -4.6473
    -4.6306  -4.4841   0.3003   0.5634   0.7594   0.9608   1.2564   1.2766
     1.3816   1.5453   2.0099   2.1061   2.3680   2.4139   2.8221   3.4119
     3.4746   3.4756   3.5058   3.6329   3.7232   3.8307   3.8381   4.2851
     4.3110   4.4752   6.1728   6.2282   6.3904   6.5527   6.6319   6.8890
     7.3128   7.5300

          k = 0.5081 0.0000-0.2971 ( 36452 PWs)   bands (ev):

   -44.1362 -44.1362 -22.2521 -22.2521 -22.2002 -22.2002 -22.0660 -22.0660
    -7.4092  -7.4092  -6.7839  -6.7839  -5.7166  -5.7166  -4.7228  -4.7228
    -4.5572  -4.5572   0.4265   0.4265   1.0019   1.0019   1.0494   1.0494
     1.4013   1.4013   2.0593   2.0593   2.6767   2.6767   3.1696   3.1696
     3.4055   3.4055   3.5732   3.5732   3.7586   3.7586   3.8546   3.8546
     4.3399   4.3399   6.4381   6.4381   6.5292   6.5292   6.8759   6.8759
     7.1783   7.1783

          k = 0.7622 0.0645 0.0000 ( 36505 PWs)   bands (ev):

   -44.1353 -44.1353 -22.2473 -22.2473 -22.2234 -22.2234 -22.0633 -22.0633
    -7.0167  -6.7470  -6.7040  -6.5478  -5.7454  -5.4330  -5.1851  -5.1274
    -4.5268  -4.5111  -0.0552   0.0149   0.4120   0.9740   1.0015   1.2954
     1.4498   1.5648   1.9562   2.1612   2.2629   2.2795   2.3656   2.7746
     2.9205   3.3095   3.3657   3.5309   3.5448   3.6462   3.6979   3.8087
     3.8305   4.5993   5.9997   6.3626   6.4573   6.8759   6.9359   6.9401
     7.3574   7.6568

          k = 0.7622 0.0645 0.1485 ( 36509 PWs)   bands (ev):

   -44.1353 -44.1353 -22.2473 -22.2473 -22.2234 -22.2234 -22.0633 -22.0633
    -6.9925  -6.8290  -6.6416  -6.5579  -5.6983  -5.4773  -5.1791  -5.1372
    -4.5217  -4.5110  -0.0428   0.1691   0.2942   0.8477   1.0038   1.2522
     1.4649   1.6118   1.9784   1.9988   2.0532   2.6148   2.6862   2.8698
     2.8836   3.0682   3.3194   3.3872   3.5614   3.6063   3.6614   3.9660
     3.9856   4.4856   5.8308   6.3633   6.7045   6.8107   6.9697   7.0312
     7.0970   7.6425

          k = 0.7622 0.0645-0.2971 ( 36472 PWs)   bands (ev):

   -44.1353 -44.1353 -22.2473 -22.2473 -22.2234 -22.2234 -22.0633 -22.0633
    -6.9247  -6.9247  -6.5885  -6.5885  -5.5868  -5.5868  -5.1598  -5.1598
    -4.5139  -4.5139   0.0874   0.0874   0.4961   0.4961   1.1038   1.1038
     1.5562   1.5562   1.9588   1.9588   2.3845   2.3845   2.8333   2.8333
     2.9626   2.9626   3.3542   3.3542   3.5948   3.5948   3.9113   3.9113
     4.0806   4.0806   6.2616   6.2616   6.4810   6.4810   6.9881   6.9881
     7.5135   7.5135

          k = 1.0162 0.1290 0.0000 ( 36514 PWs)   bands (ev):

   -44.1349 -44.1349 -22.2452 -22.2452 -22.2330 -22.2330 -22.0622 -22.0622
    -6.7305  -6.7102  -6.0955  -6.0847  -6.0561  -6.0501  -5.2709  -5.2704
    -4.4795  -4.4522  -0.0731  -0.0404   0.2431   0.2718   1.0040   1.0281
     1.4738   1.6558   2.2246   2.3935   2.4035   2.4213   2.7894   2.8092
     2.8227   2.8706   3.2162   3.2322   3.2965   3.3744   3.5108   3.6489
     3.8396   4.1520   6.6076   6.6323   6.6803   6.6954   7.0888   7.1644
     7.1698   7.1958

          k = 1.0162 0.1290 0.1485 ( 36524 PWs)   bands (ev):

   -44.1349 -44.1349 -22.2452 -22.2452 -22.2330 -22.2330 -22.0622 -22.0622
    -6.7264  -6.7119  -6.1206  -6.1131  -6.0297  -6.0252  -5.2687  -5.2683
    -4.4784  -4.4591  -0.1662  -0.1555   0.4567   0.4621   1.0075   1.0204
     1.4678   1.5880   2.0376   2.1212   2.3654   2.3936   2.6448   2.7269
     2.9411   3.0614   3.0778   3.1857   3.5229   3.5889   3.6307   3.7346
     4.0184   4.1988   6.1131   6.1487   6.5227   6.6052   7.1675   7.1782
     7.3828   7.4264

          k = 1.0162 0.1290-0.2971 ( 36516 PWs)   bands (ev):

   -44.1349 -44.1349 -22.2452 -22.2452 -22.2330 -22.2330 -22.0622 -22.0622
    -6.7179  -6.7179  -6.1332  -6.1332  -6.0122  -6.0122  -5.2663  -5.2663
    -4.4716  -4.4716  -0.2237  -0.2237   0.6745   0.6745   0.9635   0.9635
     1.5169   1.5169   1.8382   1.8382   2.3571   2.3571   2.7476   2.7476
     2.9072   2.9072   3.1583   3.1583   3.6388   3.6388   3.8006   3.8006
     4.3312   4.3312   5.7167   5.7167   6.4738   6.4738   7.1906   7.1906
     7.4948   7.4948

          k =-0.7622-0.3224 0.0000 ( 36511 PWs)   bands (ev):

   -44.1353 -44.1353 -22.2473 -22.2473 -22.2234 -22.2234 -22.0633 -22.0633
    -6.9981  -6.7538  -6.7011  -6.5627  -5.7451  -5.4395  -5.1838  -5.1295
    -4.5449  -4.4909  -0.0779   0.0230   0.3825   0.9366   1.0002   1.2648
     1.5038   1.6664   2.0595   2.1150   2.2370   2.3246   2.4550   2.8355
     2.9428   3.2146   3.3352   3.4688   3.5286   3.6316   3.6727   3.7579
     3.9176   4.5204   6.0061   6.3863   6.4698   6.8010   6.9459   7.0428
     7.3154   7.5995

          k =-0.7622-0.3224 0.1485 ( 36492 PWs)   bands (ev):

   -44.1353 -44.1353 -22.2473 -22.2473 -22.2234 -22.2234 -22.0633 -22.0633
    -6.9750  -6.8226  -6.6516  -6.5734  -5.6974  -5.4802  -5.1803  -5.1396
    -4.5343  -4.4969  -0.0617   0.1756   0.2727   0.8678   0.9500   1.2183
     1.5281   1.6217   1.9454   2.1458   2.1970   2.5995   2.6792   2.8946
     2.9195   3.0813   3.2191   3.3619   3.4745   3.5952   3.7304   3.8794
     3.9798   4.4953   5.7733   6.4211   6.6611   6.8055   6.9479   7.0537
     7.1515   7.5790

          k =-0.7622-0.3224-0.2971 ( 36508 PWs)   bands (ev):

   -44.1353 -44.1353 -22.2473 -22.2473 -22.2234 -22.2234 -22.0633 -22.0633
    -6.9109  -6.9109  -6.6038  -6.6038  -5.5860  -5.5860  -5.1626  -5.1626
    -4.5134  -4.5134   0.0679   0.0679   0.5130   0.5130   1.0572   1.0572
     1.5705   1.5705   2.0720   2.0720   2.4365   2.4365   2.8261   2.8261
     3.0055   3.0055   3.2205   3.2205   3.5953   3.5953   3.9093   3.9093
     4.0776   4.0776   6.2017   6.2017   6.4796   6.4796   7.0700   7.0700
     7.4377   7.4377

          k =-0.5081-0.2579 0.0000 ( 36480 PWs)   bands (ev):

   -44.1362 -44.1362 -22.2521 -22.2521 -22.2002 -22.2002 -22.0661 -22.0660
    -7.5079  -7.2355  -6.8981  -6.7372  -5.9886  -5.2572  -5.0391  -4.6713
    -4.6028  -4.4596   0.2515   0.5724   0.6587   1.1837   1.1913   1.4258
     1.6433   1.7255   1.9289   2.0841   2.1504   2.3446   2.4797   3.3957
     3.4213   3.5032   3.5572   3.6306   3.7347   3.7589   3.9840   4.1129
     4.3555   4.9899   5.6700   6.0871   6.1650   6.6956   6.7449   6.9042
     7.4153   7.5199

          k =-0.5081-0.2579 0.1485 ( 36485 PWs)   bands (ev):

   -44.1362 -44.1362 -22.2521 -22.2521 -22.2002 -22.2002 -22.0661 -22.0660
    -7.4796  -7.2958  -6.8555  -6.7508  -5.9164  -5.4568  -4.8852  -4.6429
    -4.6324  -4.4797   0.2902   0.5838   0.7550   0.9450   1.2238   1.3419
     1.4989   1.6300   2.0066   2.0746   2.3461   2.5088   2.8286   3.3262
     3.4383   3.4856   3.5322   3.6103   3.6251   3.7560   3.8716   4.1567
     4.2673   4.5061   6.1753   6.2186   6.3305   6.6994   6.7712   6.7869
     7.2442   7.4953

          k =-0.5081-0.2579-0.2971 ( 36478 PWs)   bands (ev):

   -44.1362 -44.1362 -22.2521 -22.2521 -22.2002 -22.2002 -22.0660 -22.0660
    -7.4007  -7.4007  -6.7917  -6.7917  -5.7206  -5.7206  -4.7353  -4.7353
    -4.5482  -4.5482   0.4316   0.4316   0.9951   0.9951   1.0352   1.0352
     1.5305   1.5305   2.0439   2.0439   2.7142   2.7142   3.1701   3.1701
     3.3815   3.3815   3.5209   3.5209   3.6929   3.6929   3.8679   3.8679
     4.2753   4.2753   6.3876   6.3876   6.6426   6.6426   6.8181   6.8181
     7.1830   7.1830

          k =-0.2541-0.1934 0.0000 ( 36410 PWs)   bands (ev):

   -44.1371 -44.1371 -22.2568 -22.2568 -22.1770 -22.1770 -22.0688 -22.0687
    -7.8602  -7.5779  -7.0558  -6.8585  -6.1745  -5.3703  -4.8871  -4.7819
    -4.7121  -3.9767   0.4054   0.8860   0.9899   1.1408   1.2793   1.4891
     1.6962   1.8320   1.8484   2.5462   2.5946   3.2445   3.2756   3.6763
     3.7159   3.7262   3.8146   3.8655   3.9040   4.1934   4.2997   4.3201
     4.3680   4.6068   5.9203   6.0128   6.2656   6.5620   6.6250   6.7204
     7.0014   7.1177

          k =-0.2541-0.1934 0.1485 ( 36427 PWs)   bands (ev):

   -44.1371 -44.1371 -22.2568 -22.2568 -22.1770 -22.1770 -22.0688 -22.0687
    -7.8301  -7.6378  -7.0060  -6.8750  -6.1006  -5.5860  -4.8018  -4.7272
    -4.6277  -4.0658   0.4649   0.9038   0.9436   1.0441   1.2341   1.3576
     1.7522   1.9153   2.2015   2.5445   2.5783   2.9430   3.3935   3.4260
     3.5508   3.7091   3.8169   3.9031   3.9956   4.1517   4.3181   4.3267
     4.6738   4.8033   5.8553   5.9910   6.1495   6.3242   6.4430   6.7660
     7.1757   7.2683

          k =-0.2541-0.1934-0.2971 ( 36422 PWs)   bands (ev):

   -44.1371 -44.1371 -22.2568 -22.2568 -22.1770 -22.1770 -22.0687 -22.0687
    -7.7467  -7.7467  -6.9263  -6.9263  -5.8884  -5.8884  -4.7618  -4.7618
    -4.3074  -4.3074   0.6435   0.6435   1.0749   1.0749   1.1545   1.1545
     1.9759   1.9759   2.4789   2.4789   2.6620   2.6620   3.2388   3.2388
     3.6464   3.6464   3.8309   3.8309   4.1112   4.1112   4.3288   4.3288
     4.9971   4.9971   5.7572   5.7572   6.1741   6.1741   6.5113   6.5113
     7.3739   7.3740

          k = 0.0000-0.1290 0.0000 ( 36417 PWs)   bands (ev):

   -44.1374 -44.1374 -22.2588 -22.2587 -22.1674 -22.1674 -22.0699 -22.0698
    -7.9836  -7.6954  -7.1251  -6.9048  -6.2309  -5.4166  -4.8564  -4.8227
    -4.7594  -3.8134   0.3140   0.7631   0.8359   1.1469   1.4029   1.5653
     2.1290   2.2977   2.3366   2.7758   2.9285   3.0073   3.3414   3.3454
     3.7124   3.8445   3.8949   4.0126   4.2855   4.2919   4.3474   4.6977
     4.7668   5.4070   5.6597   5.8840   5.9276   5.9643   6.1015   6.8086
     7.0238   7.2308

          k = 0.0000-0.1290 0.1485 ( 36419 PWs)   bands (ev):

   -44.1374 -44.1374 -22.2588 -22.2587 -22.1674 -22.1674 -22.0699 -22.0698
    -7.9529  -7.7565  -7.0700  -6.9231  -6.1590  -5.6380  -4.8242  -4.7722
    -4.5966  -3.9263   0.3858   0.8696   0.9144   0.9843   1.1139   1.8917
     2.0554   2.1519   2.2944   2.8107   2.9142   3.0969   3.3779   3.4537
     3.7313   3.8786   3.9017   3.9964   4.2209   4.3120   4.3640   4.6954
     4.7301   4.9385   5.8446   5.9353   5.9634   6.0963   6.4371   6.6296
     6.8418   7.1379

          k = 0.0000-0.1290-0.2971 ( 36464 PWs)   bands (ev):

   -44.1374 -44.1374 -22.2587 -22.2587 -22.1674 -22.1674 -22.0699 -22.0699
    -7.8677  -7.8677  -6.9805  -6.9805  -5.9474  -5.9474  -4.7979  -4.7979
    -4.2211  -4.2211   0.6113   0.6113   0.9716   0.9716   1.3529   1.3529
     2.2146   2.2146   2.6196   2.6196   2.8715   2.8715   3.5412   3.5412
     3.8504   3.8504   4.0527   4.0527   4.2475   4.2475   4.4054   4.4054
     4.6983   4.6983   5.9301   5.9301   6.2389   6.2389   6.4651   6.4651
     6.8974   6.8974

          k = 1.0162 0.0000 0.0000 ( 36499 PWs)   bands (ev):

   -44.1349 -44.1349 -22.2452 -22.2452 -22.2330 -22.2330 -22.0622 -22.0622
    -6.7305  -6.7102  -6.0953  -6.0849  -6.0562  -6.0501  -5.2709  -5.2704
    -4.4795  -4.4522  -0.0773  -0.0361   0.2403   0.2746   1.0001   1.0329
     1.4811   1.6453   2.2221   2.3983   2.4027   2.4165   2.7823   2.8090
     2.8182   2.8985   3.2244   3.2406   3.2671   3.3560   3.5846   3.5973
     3.8258   4.1655   6.6030   6.6242   6.6887   6.7025   7.1244   7.1652
     7.1653   7.1717

          k = 1.0162 0.0000 0.1485 ( 36485 PWs)   bands (ev):

   -44.1349 -44.1349 -22.2452 -22.2452 -22.2330 -22.2330 -22.0622 -22.0622
    -6.7264  -6.7119  -6.1205  -6.1132  -6.0297  -6.0253  -5.2687  -5.2682
    -4.4784  -4.4591  -0.1679  -0.1541   0.4590   0.4603   1.0082   1.0199
     1.4744   1.5814   2.0563   2.0968   2.3704   2.3865   2.6326   2.7437
     2.9530   3.0685   3.0766   3.1733   3.5089   3.5907   3.6551   3.7236
     4.0003   4.2145   6.1097   6.1563   6.5196   6.6076   7.1734   7.1759
     7.4034   7.4070

          k = 1.0162 0.0000-0.2971 ( 36514 PWs)   bands (ev):

   -44.1349 -44.1349 -22.2452 -22.2452 -22.2330 -22.2330 -22.0622 -22.0622
    -6.7179  -6.7179  -6.1332  -6.1332  -6.0123  -6.0123  -5.2663  -5.2663
    -4.4716  -4.4716  -0.2238  -0.2238   0.6749   0.6749   0.9633   0.9633
     1.5180   1.5180   1.8390   1.8390   2.3494   2.3494   2.7361   2.7361
     2.9417   2.9417   3.1399   3.1399   3.6412   3.6412   3.7986   3.7986
     4.3317   4.3317   5.7193   5.7193   6.4731   6.4731   7.1918   7.1918
     7.4959   7.4959

          k = 1.2703 0.0645 0.0000 ( 36468 PWs)   bands (ev):

   -44.1353 -44.1353 -22.2473 -22.2473 -22.2234 -22.2234 -22.0633 -22.0633
    -6.9896  -6.7577  -6.6999  -6.5687  -5.7450  -5.4422  -5.1832  -5.1304
    -4.5490  -4.4860  -0.0870   0.0266   0.3703   0.9179   1.0109   1.2540
     1.5071   1.7139   2.0995   2.1326   2.2511   2.3412   2.4287   2.8638
     2.9465   3.1783   3.3668   3.4957   3.5016   3.5885   3.6214   3.7108
     4.0066   4.4740   6.0088   6.3821   6.5022   6.7414   6.9785   7.1042
     7.2794   7.5910

          k = 1.2703 0.0645 0.1485 ( 36490 PWs)   bands (ev):

   -44.1353 -44.1353 -22.2473 -22.2473 -22.2234 -22.2234 -22.0633 -22.0633
    -6.9670  -6.8202  -6.6562  -6.5799  -5.6970  -5.4815  -5.1808  -5.1406
    -4.5372  -4.4934  -0.0695   0.1796   0.2628   0.8716   0.9382   1.2056
     1.5423   1.6326   1.9413   2.2148   2.2537   2.5973   2.6499   2.9057
     2.9305   3.1104   3.1864   3.3342   3.4697   3.5472   3.7632   3.8307
     3.9943   4.4973   5.7518   6.4513   6.6316   6.8022   6.9286   7.1081
     7.1611   7.5384

          k = 1.2703 0.0645-0.2971 ( 36480 PWs)   bands (ev):

   -44.1353 -44.1353 -22.2473 -22.2473 -22.2234 -22.2234 -22.0633 -22.0633
    -6.9047  -6.9047  -6.6106  -6.6106  -5.5856  -5.5856  -5.1638  -5.1638
    -4.5132  -4.5132   0.0601   0.0601   0.5195   0.5195   1.0421   1.0421
     1.5767   1.5767   2.1037   2.1037   2.4797   2.4797   2.8250   2.8250
     3.0240   3.0240   3.1605   3.1605   3.5901   3.5901   3.8860   3.8860
     4.0965   4.0965   6.1799   6.1799   6.4779   6.4779   7.1125   7.1125
     7.3945   7.3945

          k =-0.5081-0.3869 0.0000 ( 36463 PWs)   bands (ev):

   -44.1362 -44.1362 -22.2521 -22.2521 -22.2002 -22.2002 -22.0661 -22.0660
    -7.5000  -7.2341  -6.8980  -6.7427  -5.9969  -5.2576  -5.0456  -4.6769
    -4.5942  -4.4608   0.2399   0.5825   0.6546   1.1914   1.2014   1.5403
     1.6515   1.7383   1.9654   2.0648   2.1770   2.3484   2.4718   3.2854
     3.4472   3.4961   3.5208   3.6665   3.6796   3.7278   3.9117   4.1107
     4.3430   4.9993   5.6603   5.9984   6.2321   6.8035   6.8188   6.8728
     7.3502   7.5017

          k =-0.5081-0.3869 0.1485 ( 36477 PWs)   bands (ev):

   -44.1362 -44.1362 -22.2521 -22.2521 -22.2002 -22.2002 -22.0661 -22.0660
    -7.4721  -7.2922  -6.8583  -6.7567  -5.9226  -5.4578  -4.8944  -4.6399
    -4.6340  -4.4767   0.2834   0.5975   0.7496   0.9343   1.2279   1.3590
     1.6088   1.7024   1.9869   2.0537   2.3629   2.5322   2.8329   3.2301
     3.4478   3.4698   3.5071   3.5564   3.6345   3.7403   3.8681   4.1152
     4.2145   4.5226   6.1268   6.2486   6.3045   6.7001   6.8041   6.9051
     7.1749   7.4874

          k =-0.5081-0.3869-0.2971 ( 36492 PWs)   bands (ev):

   -44.1362 -44.1362 -22.2521 -22.2521 -22.2002 -22.2002 -22.0660 -22.0660
    -7.3945  -7.3945  -6.7974  -6.7974  -5.7233  -5.7233  -4.7436  -4.7436
    -4.5425  -4.5425   0.4349   0.4349   0.9887   0.9887   1.0302   1.0302
     1.6410   1.6410   2.0177   2.0177   2.7537   2.7537   3.1217   3.1217
     3.3681   3.3681   3.4810   3.4810   3.6819   3.6819   3.8713   3.8713
     4.2345   4.2345   6.3544   6.3544   6.6857   6.6857   6.8016   6.8016
     7.2056   7.2057

          k =-0.2541-0.3224 0.0000 ( 36485 PWs)   bands (ev):

   -44.1371 -44.1371 -22.2568 -22.2568 -22.1770 -22.1770 -22.0688 -22.0687
    -7.8526  -7.5765  -7.0496  -6.8634  -6.1923  -5.3739  -4.9019  -4.7833
    -4.7011  -3.9780   0.4309   0.8965   1.1082   1.1317   1.3278   1.5606
     1.7332   1.8350   1.8829   2.4762   2.5514   3.2293   3.3766   3.5237
     3.6025   3.6856   3.7265   3.8323   3.9474   4.1384   4.1683   4.2794
     4.3129   4.6352   6.0097   6.0459   6.3314   6.5727   6.6539   6.7807
     6.9242   7.0428

          k =-0.2541-0.3224 0.1485 ( 36445 PWs)   bands (ev):

   -44.1371 -44.1371 -22.2568 -22.2568 -22.1770 -22.1770 -22.0688 -22.0687
    -7.8229  -7.6344  -7.0038  -6.8798  -6.1151  -5.5903  -4.8214  -4.7212
    -4.6208  -4.0658   0.4886   0.9109   0.9578   1.1691   1.3053   1.3834
     1.7723   1.9199   2.2491   2.4793   2.5399   2.9400   3.4024   3.4827
     3.5197   3.5500   3.6579   3.8995   3.9226   4.0956   4.2320   4.2884
     4.6879   4.7992   5.8482   6.0239   6.1495   6.3703   6.5402   6.7575
     7.1405   7.2509

          k =-0.2541-0.3224-0.2971 ( 36442 PWs)   bands (ev):

   -44.1371 -44.1371 -22.2568 -22.2568 -22.1770 -22.1770 -22.0687 -22.0687
    -7.7408  -7.7408  -6.9293  -6.9293  -5.8968  -5.8968  -4.7678  -4.7678
    -4.3048  -4.3048   0.6618   0.6618   1.1120   1.1120   1.2365   1.2365
     1.9849   1.9849   2.4568   2.4568   2.6599   2.6599   3.2562   3.2562
     3.5088   3.5088   3.7999   3.7999   4.0562   4.0562   4.2677   4.2677
     5.0157   5.0157   5.7209   5.7209   6.1726   6.1726   6.5975   6.5975
     7.3578   7.3578

          k = 0.0000-0.2579 0.0000 ( 36445 PWs)   bands (ev):

   -44.1374 -44.1374 -22.2588 -22.2587 -22.1674 -22.1674 -22.0699 -22.0698
    -7.9768  -7.6942  -7.1172  -6.9094  -6.2502  -5.4214  -4.8794  -4.8185
    -4.7458  -3.8146   0.3484   0.7732   0.9457   1.1971   1.4291   1.6300
     2.1295   2.2967   2.3349   2.7934   2.9333   3.0246   3.3014   3.4473
     3.5001   3.6511   3.8172   3.9554   4.1568   4.2143   4.2922   4.6959
     4.7383   5.3653   5.7120   5.9423   5.9464   6.0434   6.1877   6.7982
     7.0239   7.1442

          k = 0.0000-0.2579 0.1485 ( 36452 PWs)   bands (ev):

   -44.1374 -44.1374 -22.2588 -22.2587 -22.1674 -22.1674 -22.0699 -22.0698
    -7.9465  -7.7534  -7.0660  -6.9272  -6.1752  -5.6435  -4.8427  -4.7648
    -4.5920  -3.9266   0.4186   0.9261   0.9683   1.0368   1.1668   1.9048
     2.0973   2.1524   2.2937   2.8258   2.9205   3.1000   3.3279   3.4449
     3.6449   3.6665   3.8762   3.9089   4.1870   4.2129   4.2420   4.6931
     4.7127   4.9311   5.8843   5.9880   6.0269   6.1102   6.4663   6.6185
     6.8442   7.0830

          k = 0.0000-0.2579-0.2971 ( 36454 PWs)   bands (ev):

   -44.1374 -44.1374 -22.2587 -22.2587 -22.1674 -22.1674 -22.0699 -22.0699
    -7.8625  -7.8625  -6.9820  -6.9820  -5.9573  -5.9573  -4.8029  -4.8029
    -4.2194  -4.2194   0.6458   0.6458   1.0549   1.0549   1.3689   1.3689
     2.2149   2.2149   2.6468   2.6468   2.8819   2.8819   3.4278   3.4278
     3.7768   3.7768   4.0332   4.0332   4.1203   4.1203   4.3756   4.3756
     4.6926   4.6926   5.9594   5.9594   6.2712   6.2712   6.4724   6.4724
     6.8732   6.8732

          k = 1.5243 0.0000 0.0000 ( 36439 PWs)   bands (ev):

   -44.1362 -44.1362 -22.2521 -22.2521 -22.2002 -22.2002 -22.0661 -22.0660
    -7.4967  -7.2336  -6.8982  -6.7447  -6.0004  -5.2577  -5.0484  -4.6786
    -4.5912  -4.4612   0.2352   0.5889   0.6492   1.1974   1.2055   1.6045
     1.6767   1.7029   1.9814   2.0572   2.2226   2.3161   2.4673   3.2441
     3.4501   3.4619   3.5276   3.6688   3.7029   3.7389   3.8203   4.1320
     4.3372   5.0021   5.6568   5.9606   6.2630   6.7827   6.8541   6.9319
     7.3070   7.5349

          k = 1.5243 0.0000 0.1485 ( 36476 PWs)   bands (ev):

   -44.1362 -44.1362 -22.2521 -22.2521 -22.2002 -22.2002 -22.0661 -22.0660
    -7.4689  -7.2907  -6.8598  -6.7589  -5.9252  -5.4581  -4.8982  -4.6386
    -4.6348  -4.4755   0.2806   0.6032   0.7467   0.9300   1.2313   1.3650
     1.6806   1.7178   1.9841   2.0315   2.3845   2.5237   2.8344   3.1928
     3.4056   3.4738   3.4987   3.5685   3.6571   3.7262   3.8369   4.1429
     4.1663   4.5292   6.1016   6.2633   6.2981   6.6702   6.8439   6.9749
     7.1289   7.5035

          k = 1.5243 0.0000-0.2971 ( 36508 PWs)   bands (ev):

   -44.1362 -44.1362 -22.2521 -22.2521 -22.2002 -22.2002 -22.0660 -22.0660
    -7.3919  -7.3919  -6.7999  -6.7999  -5.7245  -5.7245  -4.7469  -4.7469
    -4.5402  -4.5402   0.4361   0.4361   0.9861   0.9861   1.0286   1.0286
     1.6980   1.6980   1.9972   1.9972   2.7769   2.7769   3.0804   3.0804
     3.3691   3.3691   3.4703   3.4703   3.6788   3.6788   3.8698   3.8698
     4.2201   4.2201   6.3410   6.3410   6.6847   6.6847   6.8091   6.8091
     7.2229   7.2229

          k =-0.2541-0.4514 0.0000 ( 36444 PWs)   bands (ev):

   -44.1371 -44.1371 -22.2568 -22.2568 -22.1770 -22.1770 -22.0688 -22.0687
    -7.8471  -7.5756  -7.0459  -6.8661  -6.2052  -5.3764  -4.9124  -4.7817
    -4.6958  -3.9789   0.4423   0.9057   1.1235   1.2303   1.3405   1.6446
     1.7604   1.8351   1.9181   2.3999   2.4788   3.2362   3.3775   3.4543
     3.4796   3.7293   3.7374   3.8301   3.8846   4.0965   4.1081   4.2094
     4.3109   4.6533   6.0626   6.0845   6.3592   6.5816   6.6804   6.8199
     6.8339   7.0154

          k =-0.2541-0.4514 0.1485 ( 36461 PWs)   bands (ev):

   -44.1371 -44.1371 -22.2568 -22.2568 -22.1770 -22.1770 -22.0688 -22.0687
    -7.8177  -7.6320  -7.0027  -6.8827  -6.1256  -5.5933  -4.8334  -4.7182
    -4.6165  -4.0659   0.4990   0.9203   0.9612   1.2877   1.3453   1.4242
     1.8001   1.9225   2.2979   2.4065   2.4623   2.9528   3.3379   3.3800
     3.4920   3.5480   3.7331   3.8600   3.8969   3.9656   4.2160   4.2600
     4.7089   4.7886   5.8442   6.0454   6.1587   6.3693   6.6071   6.7409
     7.1327   7.2366

          k =-0.2541-0.4514-0.2971 ( 36490 PWs)   bands (ev):

   -44.1371 -44.1371 -22.2568 -22.2568 -22.1770 -22.1770 -22.0687 -22.0687
    -7.7366  -7.7366  -6.9314  -6.9314  -5.9026  -5.9026  -4.7720  -4.7720
    -4.3029  -4.3029   0.6697   0.6697   1.1234   1.1234   1.3344   1.3344
     1.9957   1.9957   2.4119   2.4119   2.6609   2.6609   3.2497   3.2497
     3.3989   3.3989   3.8450   3.8450   3.9838   3.9838   4.2375   4.2375
     5.0290   5.0290   5.6989   5.6989   6.1595   6.1595   6.6509   6.6509
     7.3500   7.3500

          k = 0.0000-0.3869 0.0000 ( 36477 PWs)   bands (ev):

   -44.1375 -44.1374 -22.2588 -22.2587 -22.1674 -22.1674 -22.0699 -22.0698
    -7.9699  -7.6930  -7.1099  -6.9129  -6.2702  -5.4261  -4.8995  -4.8107
    -4.7386  -3.8158   0.3710   0.7842   1.0948   1.2589   1.4537   1.7019
     2.1301   2.2977   2.3333   2.8125   2.9376   3.0555   3.1467   3.2066
     3.5469   3.6030   3.7894   3.9517   4.0126   4.0400   4.2925   4.6944
     4.7101   5.3407   5.7647   5.9653   6.0141   6.0929   6.2456   6.7351
     7.0238   7.0968

          k = 0.0000-0.3869 0.1485 ( 36452 PWs)   bands (ev):

   -44.1374 -44.1374 -22.2588 -22.2587 -22.1674 -22.1674 -22.0699 -22.0698
    -7.9399  -7.7504  -7.0624  -6.9306  -6.1917  -5.6490  -4.8581  -4.7600
    -4.5879  -3.9268   0.4385   0.9480   1.0160   1.1656   1.2435   1.9204
     2.1405   2.1529   2.2931   2.8420   2.9265   3.0352   3.1554   3.3328
     3.5343   3.7226   3.8502   3.9202   4.0560   4.0858   4.2041   4.6908
     4.6961   4.9295   5.9332   6.0310   6.0590   6.1244   6.4827   6.5771
     6.8467   7.0414

          k = 0.0000-0.3869-0.2971 ( 36454 PWs)   bands (ev):

   -44.1374 -44.1374 -22.2587 -22.2587 -22.1674 -22.1674 -22.0699 -22.0699
    -7.8571  -7.8571  -6.9836  -6.9836  -5.9671  -5.9671  -4.8080  -4.8080
    -4.2176  -4.2176   0.6646   0.6646   1.1779   1.1779   1.3866   1.3866
     2.2151   2.2151   2.6662   2.6662   2.8926   2.8926   3.1981   3.1981
     3.8207   3.8207   4.0059   4.0059   4.0132   4.0132   4.3464   4.3464
     4.6873   4.6873   5.9671   5.9671   6.2990   6.2990   6.4799   6.4799
     6.8395   6.8395

          k =-2.0325 0.0000 0.0000 ( 36452 PWs)   bands (ev):

   -44.1374 -44.1374 -22.2588 -22.2587 -22.1674 -22.1674 -22.0699 -22.0698
    -7.9670  -7.6925  -7.1072  -6.9139  -6.2786  -5.4280  -4.9071  -4.8070
    -4.7369  -3.8163   0.3769   0.7890   1.2185   1.2345   1.4633   1.7455
     2.1303   2.2990   2.3326   2.8208   2.9391   3.0298   3.0732   3.0885
     3.5390   3.7493   3.7777   3.8618   3.9522   3.9741   4.2926   4.6938
     4.6985   5.3331   5.7862   5.9732   6.0519   6.1083   6.2637   6.6894
     7.0238   7.0888

          k =-2.0325 0.0000 0.1485 ( 36456 PWs)   bands (ev):

   -44.1374 -44.1374 -22.2588 -22.2587 -22.1674 -22.1674 -22.0699 -22.0698
    -7.9372  -7.7491  -7.0612  -6.9318  -6.1986  -5.6512  -4.8640  -4.7584
    -4.5864  -3.9269   0.4431   0.9565   1.0308   1.2428   1.2798   1.9276
     2.1531   2.1618   2.2928   2.8491   2.9289   2.9604   3.0365   3.3271
     3.5100   3.8125   3.8393   3.9348   3.9604   4.0089   4.2003   4.6888
     4.6906   4.9295   5.9577   6.0498   6.0633   6.1304   6.4863   6.5496
     6.8477   7.0293

          k =-2.0325 0.0000-0.2971 ( 36460 PWs)   bands (ev):

   -44.1374 -44.1374 -22.2588 -22.2588 -22.1674 -22.1674 -22.0699 -22.0699
    -7.8549  -7.8549  -6.9843  -6.9843  -5.9712  -5.9712  -4.8101  -4.8101
    -4.2168  -4.2168   0.6689   0.6689   1.2429   1.2429   1.3949   1.3949
     2.2152   2.2152   2.6655   2.6655   2.8972   2.8972   3.0947   3.0947
     3.8849   3.8849   3.9235   3.9235   4.0047   4.0047   4.3361   4.3361
     4.6852   4.6852   5.9661   5.9661   6.3088   6.3088   6.4832   6.4832
     6.8243   6.8244

     the Fermi energy is     5.5351 ev

!    total energy              =   -4240.95179787 Ry

     total all-electron energy =   -150287.645493 Ry
     estimated scf accuracy    <          2.4E-11 Ry
     smearing contrib. (-TS)   =       0.00000022 Ry
     internal energy E=F+TS    =   -4240.95179809 Ry

     The total energy is F=E-TS. E is the sum of the following terms:
     one-electron contribution =    -167.52576834 Ry
     hartree contribution      =     117.23357635 Ry
     xc contribution           =    -201.53751452 Ry
     ewald contribution        =    -221.59596301 Ry
     one-center paw contrib.   =   -3767.52612857 Ry

     convergence has been achieved in  15 iterations

     Forces acting on atoms (cartesian axes, Ry/au):

     atom    1 type  1   force =     0.00000000    0.00636173    0.00000000
     atom    2 type  1   force =     0.00000000   -0.00636173    0.00000000
     atom    3 type  2   force =     0.00000000    0.00000488    0.00000000
     atom    4 type  2   force =     0.00000000   -0.00000488    0.00000000
     atom    5 type  2   force =     0.00000000   -0.00145663   -0.00056174
     atom    6 type  2   force =     0.00000000    0.00145663    0.00056174
     atom    7 type  2   force =     0.00000000   -0.00145663    0.00056174
     atom    8 type  2   force =     0.00000000    0.00145663   -0.00056174
     atom    9 type  2   force =     0.00000000   -0.01030097   -0.01112429
     atom   10 type  2   force =     0.00000000    0.01030097    0.01112429
     atom   11 type  2   force =     0.00000000   -0.01030097    0.01112429
     atom   12 type  2   force =     0.00000000    0.01030097   -0.01112429

     Total force =     0.031783     Total SCF correction =     0.000008


     Computing stress (Cartesian axis) and pressure

          total   stress  (Ry/bohr**3)                   (kbar)     P=        2.54
   0.00001615   0.00000000   0.00000000            2.38        0.00        0.00
   0.00000000   0.00001189   0.00000000            0.00        1.75        0.00
   0.00000000   0.00000000   0.00002377            0.00        0.00        3.50

 
     init_run     :     17.89s CPU     18.37s WALL (       1 calls)
     electrons    :    799.71s CPU    808.63s WALL (       1 calls)
     forces       :      6.42s CPU      6.64s WALL (       1 calls)
     stress       :     40.10s CPU     40.69s WALL (       1 calls)

     Called by init_run:
     wfcinit      :     13.28s CPU     13.44s WALL (       1 calls)
     potinit      :      1.41s CPU      1.45s WALL (       1 calls)
     hinit0       :      1.65s CPU      1.70s WALL (       1 calls)

     Called by electrons:
     c_bands      :    663.81s CPU    666.47s WALL (      16 calls)
     sum_band     :    114.61s CPU    118.02s WALL (      16 calls)
     v_of_rho     :      4.81s CPU      5.03s WALL (      16 calls)
     newd         :     11.95s CPU     14.76s WALL (      16 calls)
     PAW_pot      :      4.96s CPU      4.96s WALL (      16 calls)
     mix_rho      :      0.69s CPU      0.71s WALL (      16 calls)

     Called by c_bands:
     init_us_2    :      9.70s CPU      9.76s WALL (    2205 calls)
     cegterg      :    598.69s CPU    601.01s WALL (    1008 calls)

     Called by *egterg:
     cdiaghg      :     22.31s CPU     22.36s WALL (    6664 calls)
     h_psi        :    463.80s CPU    466.02s WALL (    6790 calls)
     s_psi        :     36.49s CPU     36.54s WALL (    6790 calls)
     g_psi        :      1.61s CPU      1.62s WALL (    5719 calls)

     Called by h_psi:
     h_psi:calbec :     31.77s CPU     31.82s WALL (    6790 calls)
     vloc_psi     :    393.16s CPU    395.18s WALL (    6790 calls)
     add_vuspsi   :     36.37s CPU     36.43s WALL (    6790 calls)

     General routines
     calbec       :     42.65s CPU     42.72s WALL (    8113 calls)
     fft          :      3.02s CPU      3.13s WALL (     232 calls)
     ffts         :      0.07s CPU      0.07s WALL (      32 calls)
     fftw         :    370.09s CPU    371.93s WALL (  360776 calls)
     interpolate  :      0.26s CPU      0.26s WALL (      16 calls)
 
     Parallel routines
 
     PWSCF        :  14m24.39s CPU  14m34.71s WALL

 
   This run was terminated on:  15:29:37  19Nov2021            

=------------------------------------------------------------------------------=
   JOB DONE.
=------------------------------------------------------------------------------=
