
     Program PWSCF v.6.8 starts on 19Nov2021 at 15:15:50 

     This program is part of the open-source Quantum ESPRESSO suite
     for quantum simulation of materials; please cite
         "P. Giannozzi et al., J. Phys.:Condens. Matter 21 395502 (2009);
         "P. Giannozzi et al., J. Phys.:Condens. Matter 29 465901 (2017);
         "P. Giannozzi et al., J. Chem. Phys. 152 154105 (2020);
          URL http://www.quantum-espresso.org", 
     in publications or presentations arising from this work. More details at
     http://www.quantum-espresso.org/quote

     Parallel version (MPI), running on    10 processors

     MPI processes distributed on     1 nodes
     R & G space division:  proc/nbgrp/npool/nimage =      10
     71753 MiB available memory on the printing compute node when the environment starts
 
     Waiting for input...
     Reading input from standard input

     Current dimensions of program PWSCF are:
     Max number of different atomic species (ntypx) = 10
     Max number of k-points (npk) =  40000
     Max angular momentum in pseudopotentials (lmaxx) =  4
     file Zr.pbe-spn-kjpaw_psl.1.0.0.UPF: wavefunction(s)  4S 4P renormalized
     file Te.pbe-n-kjpaw_psl.1.0.0.UPF: wavefunction(s)  5S 5P renormalized
     Message from routine setup:
     using ibrav=0 with symmetry is DISCOURAGED, use correct ibrav instead

     Subspace diagonalization in iterative solution of the eigenvalue problem:
     a serial algorithm will be used

 
     Parallelization info
     --------------------
     sticks:   dense  smooth     PW     G-vecs:    dense   smooth      PW
     Min         734     293     87               115340    29174    4753
     Max         735     295     88               115345    29176    4760
     Sum        7345    2937    873              1153415   291749   47557
 
     Using Slab Decomposition
 


     bravais-lattice index     =            0
     lattice parameter (alat)  =      15.5510  a.u.
     unit-cell volume          =    3018.5011 (a.u.)^3
     number of atoms/cell      =           12
     number of atomic types    =            2
     number of electrons       =        84.00
     number of Kohn-Sham states=           50
     kinetic-energy cutoff     =      80.0000  Ry
     charge density cutoff     =     800.0000  Ry
     scf convergence threshold =      1.0E-10
     mixing beta               =       0.7000
     number of iterations used =            8  plain     mixing
     Exchange-correlation= SLA  PW   PBX  PBC
                           (   1   4   3   4   0   0   0)

     celldm(1)=  15.551040  celldm(2)=   0.000000  celldm(3)=   0.000000
     celldm(4)=   0.000000  celldm(5)=   0.000000  celldm(6)=   0.000000

     crystal axes: (cart. coord. in units of alat)
               a(1) = (   0.246007  -0.969268   0.000000 )  
               a(2) = (   0.246007   0.969268   0.000000 )  
               a(3) = (   0.000000   0.000000   1.683031 )  

     reciprocal axes: (cart. coord. in units 2 pi/alat)
               b(1) = (  2.032465 -0.515853  0.000000 )  
               b(2) = (  2.032465  0.515853  0.000000 )  
               b(3) = (  0.000000  0.000000  0.594166 )  


     PseudoPot. # 1 for Zr read from file:
     pseudo/Zr.pbe-spn-kjpaw_psl.1.0.0.UPF
     MD5 check sum: 02112c41713a0468aff2bb39ef194e36
     Pseudo is Projector augmented-wave + core cor, Zval = 12.0
     Generated using &quot;atomic&quot; code by A. Dal Corso  v.6.2.2
     Shape of augmentation charge: PSQ
     Using radial grid of 1225 points,  6 beta functions with: 
                l(1) =   0
                l(2) =   0
                l(3) =   1
                l(4) =   1
                l(5) =   2
                l(6) =   2
     Q(r) pseudized with 0 coefficients 


     PseudoPot. # 2 for Te read from file:
     pseudo/Te.pbe-n-kjpaw_psl.1.0.0.UPF
     MD5 check sum: 66247bff2bd9dbf220fbb0bf5ab56e9d
     Pseudo is Projector augmented-wave + core cor, Zval =  6.0
     Generated using &quot;atomic&quot; code by A. Dal Corso  v.6.3
     Shape of augmentation charge: PSQ
     Using radial grid of 1245 points,  6 beta functions with: 
                l(1) =   0
                l(2) =   0
                l(3) =   1
                l(4) =   1
                l(5) =   2
                l(6) =   2
     Q(r) pseudized with 0 coefficients 


     atomic species   valence    mass     pseudopotential
        Zr            12.00    91.22000     Zr( 1.00)
        Te             6.00   127.60000     Te( 1.00)

      8 Sym. Ops., with inversion, found ( 4 have fractional translation)



   Cartesian axes

     site n.     atom                  positions (alat units)
         1           Zr  tau(   1) = (   0.0000000   0.6004464   0.4207578  )
         2           Zr  tau(   2) = (   0.2460067   0.3688217   1.2622733  )
         3           Te  tau(   3) = (   0.2460067   0.3341447   0.4207578  )
         4           Te  tau(   4) = (   0.0000000   0.6351235   1.2622733  )
         5           Te  tau(   5) = (   0.2460067   0.8121751   0.2536670  )
         6           Te  tau(   6) = (   0.0000000   0.1570931   1.4293641  )
         7           Te  tau(   7) = (   0.2460067   0.8121751   0.5878485  )
         8           Te  tau(   8) = (   0.0000000   0.1570931   1.0951825  )
         9           Te  tau(   9) = (   0.0000000   0.4239332   0.7395085  )
        10           Te  tau(  10) = (   0.2460067   0.5453349   0.9435226  )
        11           Te  tau(  11) = (   0.0000000   0.4239332   0.1020070  )
        12           Te  tau(  12) = (   0.2460067   0.5453349   1.5810240  )

     number of k points=    63  Methfessel-Paxton smearing, width (Ry)=  0.0030
                       cart. coord. in units 2pi/alat
        k(    1) = (   0.0000000   0.0000000   0.0000000), wk =   0.0078125
        k(    2) = (   0.0000000   0.0000000   0.1485415), wk =   0.0156250
        k(    3) = (   0.0000000   0.0000000  -0.2970830), wk =   0.0078125
        k(    4) = (   0.2540581   0.0644816   0.0000000), wk =   0.0312500
        k(    5) = (   0.2540581   0.0644816   0.1485415), wk =   0.0625000
        k(    6) = (   0.2540581   0.0644816  -0.2970830), wk =   0.0312500
        k(    7) = (   0.5081162   0.1289633   0.0000000), wk =   0.0312500
        k(    8) = (   0.5081162   0.1289633   0.1485415), wk =   0.0625000
        k(    9) = (   0.5081162   0.1289633  -0.2970830), wk =   0.0312500
        k(   10) = (   0.7621743   0.1934449   0.0000000), wk =   0.0312500
        k(   11) = (   0.7621743   0.1934449   0.1485415), wk =   0.0625000
        k(   12) = (   0.7621743   0.1934449  -0.2970830), wk =   0.0312500
        k(   13) = (  -1.0162324  -0.2579266   0.0000000), wk =   0.0156250
        k(   14) = (  -1.0162324  -0.2579266   0.1485415), wk =   0.0312500
        k(   15) = (  -1.0162324  -0.2579266  -0.2970830), wk =   0.0156250
        k(   16) = (   0.5081162   0.0000000   0.0000000), wk =   0.0156250
        k(   17) = (   0.5081162   0.0000000   0.1485415), wk =   0.0312500
        k(   18) = (   0.5081162   0.0000000  -0.2970830), wk =   0.0156250
        k(   19) = (   0.7621743   0.0644816   0.0000000), wk =   0.0312500
        k(   20) = (   0.7621743   0.0644816   0.1485415), wk =   0.0625000
        k(   21) = (   0.7621743   0.0644816  -0.2970830), wk =   0.0312500
        k(   22) = (   1.0162324   0.1289633   0.0000000), wk =   0.0312500
        k(   23) = (   1.0162324   0.1289633   0.1485415), wk =   0.0625000
        k(   24) = (   1.0162324   0.1289633  -0.2970830), wk =   0.0312500
        k(   25) = (  -0.7621743  -0.3224082   0.0000000), wk =   0.0312500
        k(   26) = (  -0.7621743  -0.3224082   0.1485415), wk =   0.0625000
        k(   27) = (  -0.7621743  -0.3224082  -0.2970830), wk =   0.0312500
        k(   28) = (  -0.5081162  -0.2579266   0.0000000), wk =   0.0312500
        k(   29) = (  -0.5081162  -0.2579266   0.1485415), wk =   0.0625000
        k(   30) = (  -0.5081162  -0.2579266  -0.2970830), wk =   0.0312500
        k(   31) = (  -0.2540581  -0.1934449   0.0000000), wk =   0.0312500
        k(   32) = (  -0.2540581  -0.1934449   0.1485415), wk =   0.0625000
        k(   33) = (  -0.2540581  -0.1934449  -0.2970830), wk =   0.0312500
        k(   34) = (   0.0000000  -0.1289633   0.0000000), wk =   0.0156250
        k(   35) = (   0.0000000  -0.1289633   0.1485415), wk =   0.0312500
        k(   36) = (   0.0000000  -0.1289633  -0.2970830), wk =   0.0156250
        k(   37) = (   1.0162324   0.0000000   0.0000000), wk =   0.0156250
        k(   38) = (   1.0162324   0.0000000   0.1485415), wk =   0.0312500
        k(   39) = (   1.0162324   0.0000000  -0.2970830), wk =   0.0156250
        k(   40) = (   1.2702905   0.0644816   0.0000000), wk =   0.0312500
        k(   41) = (   1.2702905   0.0644816   0.1485415), wk =   0.0625000
        k(   42) = (   1.2702905   0.0644816  -0.2970830), wk =   0.0312500
        k(   43) = (  -0.5081162  -0.3868899   0.0000000), wk =   0.0312500
        k(   44) = (  -0.5081162  -0.3868899   0.1485415), wk =   0.0625000
        k(   45) = (  -0.5081162  -0.3868899  -0.2970830), wk =   0.0312500
        k(   46) = (  -0.2540581  -0.3224082   0.0000000), wk =   0.0312500
        k(   47) = (  -0.2540581  -0.3224082   0.1485415), wk =   0.0625000
        k(   48) = (  -0.2540581  -0.3224082  -0.2970830), wk =   0.0312500
        k(   49) = (   0.0000000  -0.2579266   0.0000000), wk =   0.0156250
        k(   50) = (   0.0000000  -0.2579266   0.1485415), wk =   0.0312500
        k(   51) = (   0.0000000  -0.2579266  -0.2970830), wk =   0.0156250
        k(   52) = (   1.5243485   0.0000000   0.0000000), wk =   0.0156250
        k(   53) = (   1.5243485   0.0000000   0.1485415), wk =   0.0312500
        k(   54) = (   1.5243485   0.0000000  -0.2970830), wk =   0.0156250
        k(   55) = (  -0.2540581  -0.4513715   0.0000000), wk =   0.0312500
        k(   56) = (  -0.2540581  -0.4513715   0.1485415), wk =   0.0625000
        k(   57) = (  -0.2540581  -0.4513715  -0.2970830), wk =   0.0312500
        k(   58) = (   0.0000000  -0.3868899   0.0000000), wk =   0.0156250
        k(   59) = (   0.0000000  -0.3868899   0.1485415), wk =   0.0312500
        k(   60) = (   0.0000000  -0.3868899  -0.2970830), wk =   0.0156250
        k(   61) = (  -2.0324647   0.0000000   0.0000000), wk =   0.0078125
        k(   62) = (  -2.0324647   0.0000000   0.1485415), wk =   0.0156250
        k(   63) = (  -2.0324647   0.0000000  -0.2970830), wk =   0.0078125

     Dense  grid:  1153415 G-vectors     FFT dimensions: ( 144, 144, 240)

     Smooth grid:   291749 G-vectors     FFT dimensions: (  90,  90, 150)

     Estimated max dynamical RAM per process >     657.19 MB

     Estimated total dynamical RAM >       6.42 GB

     Initial potential from superposition of free atoms

     starting charge   83.99353, renormalised to   84.00000
     Starting wfcs are   66 randomized atomic wfcs
     Checking if some PAW data can be deallocated... 

     total cpu time spent up to now is       20.1 secs

     Self-consistent Calculation

     iteration #  1     ecut=    80.00 Ry     beta= 0.70
     Davidson diagonalization with overlap
     ethr =  1.00E-02,  avg # of iterations =  2.2

     Threshold (ethr) on eigenvalues was too large:
     Diagonalizing with lowered threshold

     Davidson diagonalization with overlap
     ethr =  4.64E-04,  avg # of iterations =  3.9

     total cpu time spent up to now is      103.3 secs

     total energy              =   -4240.70441076 Ry
     estimated scf accuracy    <       0.45142770 Ry

     iteration #  2     ecut=    80.00 Ry     beta= 0.70
     Davidson diagonalization with overlap
     ethr =  5.37E-04,  avg # of iterations =  8.1

     total cpu time spent up to now is      164.6 secs

     total energy              =   -4240.60001820 Ry
     estimated scf accuracy    <       2.06166143 Ry

     iteration #  3     ecut=    80.00 Ry     beta= 0.70
     Davidson diagonalization with overlap
     ethr =  5.37E-04,  avg # of iterations =  5.5

     total cpu time spent up to now is      215.8 secs

     total energy              =   -4240.92364596 Ry
     estimated scf accuracy    <       0.00765408 Ry

     iteration #  4     ecut=    80.00 Ry     beta= 0.70
     Davidson diagonalization with overlap
     c_bands:  1 eigenvalues not converged
     c_bands:  1 eigenvalues not converged
     c_bands:  1 eigenvalues not converged
     c_bands:  1 eigenvalues not converged
     c_bands:  1 eigenvalues not converged
     c_bands:  3 eigenvalues not converged
     c_bands:  2 eigenvalues not converged
     c_bands:  2 eigenvalues not converged
     c_bands:  1 eigenvalues not converged
     c_bands:  1 eigenvalues not converged
     c_bands:  4 eigenvalues not converged
     c_bands:  1 eigenvalues not converged
     c_bands:  1 eigenvalues not converged
     c_bands:  1 eigenvalues not converged
     c_bands:  2 eigenvalues not converged
     c_bands:  1 eigenvalues not converged
     c_bands:  1 eigenvalues not converged
     c_bands:  1 eigenvalues not converged
     c_bands:  1 eigenvalues not converged
     c_bands:  1 eigenvalues not converged
     c_bands:  1 eigenvalues not converged
     c_bands:  1 eigenvalues not converged
     ethr =  9.11E-06,  avg # of iterations = 17.3

     total cpu time spent up to now is      310.0 secs

     total energy              =   -4240.93232492 Ry
     estimated scf accuracy    <       0.03023856 Ry

     iteration #  5     ecut=    80.00 Ry     beta= 0.70
     Davidson diagonalization with overlap
     ethr =  9.11E-06,  avg # of iterations =  7.0

     total cpu time spent up to now is      359.5 secs

     total energy              =   -4240.93388063 Ry
     estimated scf accuracy    <       0.00514488 Ry

     iteration #  6     ecut=    80.00 Ry     beta= 0.70
     Davidson diagonalization with overlap
     ethr =  6.12E-06,  avg # of iterations =  4.3

     total cpu time spent up to now is      402.2 secs

     total energy              =   -4240.93448780 Ry
     estimated scf accuracy    <       0.00055215 Ry

     iteration #  7     ecut=    80.00 Ry     beta= 0.70
     Davidson diagonalization with overlap
     ethr =  6.57E-07,  avg # of iterations =  8.2

     total cpu time spent up to now is      463.4 secs

     total energy              =   -4240.93478313 Ry
     estimated scf accuracy    <       0.00084086 Ry

     iteration #  8     ecut=    80.00 Ry     beta= 0.70
     Davidson diagonalization with overlap
     ethr =  6.57E-07,  avg # of iterations =  2.3

     total cpu time spent up to now is      500.7 secs

     total energy              =   -4240.93481223 Ry
     estimated scf accuracy    <       0.00011338 Ry

     iteration #  9     ecut=    80.00 Ry     beta= 0.70
     Davidson diagonalization with overlap
     ethr =  1.35E-07,  avg # of iterations =  6.3

     total cpu time spent up to now is      550.4 secs

     total energy              =   -4240.93485038 Ry
     estimated scf accuracy    <       0.00001857 Ry

     iteration # 10     ecut=    80.00 Ry     beta= 0.70
     Davidson diagonalization with overlap
     ethr =  2.21E-08,  avg # of iterations =  3.1

     total cpu time spent up to now is      589.3 secs

     total energy              =   -4240.93485220 Ry
     estimated scf accuracy    <       0.00000248 Ry

     iteration # 11     ecut=    80.00 Ry     beta= 0.70
     Davidson diagonalization with overlap
     ethr =  2.95E-09,  avg # of iterations =  6.5

     total cpu time spent up to now is      642.0 secs

     total energy              =   -4240.93485356 Ry
     estimated scf accuracy    <       0.00000097 Ry

     iteration # 12     ecut=    80.00 Ry     beta= 0.70
     Davidson diagonalization with overlap
     ethr =  1.16E-09,  avg # of iterations =  2.0

     total cpu time spent up to now is      677.8 secs

     total energy              =   -4240.93485359 Ry
     estimated scf accuracy    <       0.00000015 Ry

     iteration # 13     ecut=    80.00 Ry     beta= 0.70
     Davidson diagonalization with overlap
     ethr =  1.78E-10,  avg # of iterations =  6.1

     total cpu time spent up to now is      729.7 secs

     total energy              =   -4240.93485366 Ry
     estimated scf accuracy    <       0.00000005 Ry

     iteration # 14     ecut=    80.00 Ry     beta= 0.70
     Davidson diagonalization with overlap
     ethr =  6.40E-11,  avg # of iterations =  1.4

     total cpu time spent up to now is      764.3 secs

     total energy              =   -4240.93485366 Ry
     estimated scf accuracy    <       0.00000002 Ry

     iteration # 15     ecut=    80.00 Ry     beta= 0.70
     Davidson diagonalization with overlap
     ethr =  2.55E-11,  avg # of iterations =  5.1

     total cpu time spent up to now is      808.2 secs

     total energy              =   -4240.93485366 Ry
     estimated scf accuracy    <          1.9E-10 Ry

     iteration # 16     ecut=    80.00 Ry     beta= 0.70
     Davidson diagonalization with overlap
     ethr =  2.28E-13,  avg # of iterations = 10.5

     total cpu time spent up to now is      883.1 secs

     total energy              =   -4240.93485366 Ry
     estimated scf accuracy    <          2.2E-09 Ry

     iteration # 17     ecut=    80.00 Ry     beta= 0.70
     Davidson diagonalization with overlap
     ethr =  2.28E-13,  avg # of iterations =  3.4

     total cpu time spent up to now is      924.4 secs

     total energy              =   -4240.93485366 Ry
     estimated scf accuracy    <          8.0E-10 Ry

     iteration # 18     ecut=    80.00 Ry     beta= 0.70
     Davidson diagonalization with overlap
     ethr =  2.28E-13,  avg # of iterations =  6.0

     total cpu time spent up to now is      976.7 secs

     End of self-consistent calculation

          k = 0.0000 0.0000 0.0000 ( 36359 PWs)   bands (ev):

   -44.1493 -44.1493 -22.2626 -22.2626 -22.1734 -22.1734 -22.0860 -22.0858
    -8.2587  -8.0658  -7.1320  -6.9649  -6.0795  -5.4030  -4.7859  -4.7368
    -4.6924  -3.7642   0.2141   0.7980   0.8352   1.1630   1.2728   1.5332
     1.8013   1.9101   2.2616   2.8131   2.9158   2.9768   3.2425   3.3876
     3.8603   3.9517   4.0992   4.1046   4.3401   4.3658   4.4750   4.6881
     4.7425   5.2808   5.6264   5.8651   5.8904   5.9148   6.0769   6.7096
     7.1066   7.2853

          k = 0.0000 0.0000 0.1485 ( 36415 PWs)   bands (ev):

   -44.1493 -44.1493 -22.2626 -22.2626 -22.1734 -22.1734 -22.0860 -22.0858
    -8.2352  -8.1003  -7.0986  -6.9825  -6.0173  -5.5749  -4.7761  -4.7435
    -4.4930  -3.8718   0.2926   0.8496   0.9258   0.9351   1.1201   1.8154
     1.8524   1.8919   2.0003   2.8313   2.9034   3.0185   3.3790   3.4771
     3.8075   3.9991   4.0668   4.1207   4.2868   4.3816   4.4776   4.6961
     4.7345   4.8467   5.8356   5.8611   5.8649   6.2169   6.2793   6.5722
     6.9136   7.1073

          k = 0.0000 0.0000-0.2971 ( 36410 PWs)   bands (ev):

   -44.1493 -44.1493 -22.2626 -22.2626 -22.1734 -22.1734 -22.0859 -22.0859
    -8.1730  -8.1730  -7.0329  -7.0329  -5.8361  -5.8361  -4.7596  -4.7596
    -4.1500  -4.1500   0.5247   0.5247   0.9816   0.9816   1.3483   1.3483
     1.8516   1.8516   2.5441   2.5441   2.8702   2.8702   3.6169   3.6169
     3.9313   3.9313   4.1282   4.1282   4.2939   4.2939   4.4535   4.4535
     4.7152   4.7152   5.8555   5.8555   6.2134   6.2134   6.5477   6.5477
     6.7519   6.7519

          k = 0.2541 0.0645 0.0000 ( 36396 PWs)   bands (ev):

   -44.1490 -44.1489 -22.2606 -22.2606 -22.1829 -22.1829 -22.0849 -22.0847
    -8.1324  -7.9417  -7.0678  -6.9154  -6.0211  -5.3546  -4.7553  -4.7341
    -4.6904  -3.9493   0.2927   0.8714   0.9103   0.9588   1.2578   1.4831
     1.4890   1.5223   1.7678   2.5964   2.6286   3.1920   3.3023   3.6968
     3.7809   3.7955   3.8892   3.9152   4.0826   4.2714   4.3416   4.4350
     4.4584   4.6068   5.9425   5.9820   6.1558   6.4555   6.4678   6.7032
     7.0513   7.2384

          k = 0.2541 0.0645 0.1485 ( 36423 PWs)   bands (ev):

   -44.1490 -44.1490 -22.2606 -22.2606 -22.1829 -22.1829 -22.0849 -22.0848
    -8.1092  -7.9759  -7.0372  -6.9314  -5.9587  -5.5237  -4.7391  -4.6994
    -4.5568  -4.0335   0.3602   0.7703   0.9031   0.9982   1.1530   1.2190
     1.5866   1.7125   2.0662   2.5981   2.6106   2.9436   3.4209   3.4417
     3.5176   3.8571   3.9720   4.0377   4.0686   4.2242   4.4127   4.4518
     4.6719   4.7327   5.8890   6.0149   6.1160   6.2215   6.2805   6.8157
     7.2111   7.2380

          k = 0.2541 0.0645-0.2971 ( 36436 PWs)   bands (ev):

   -44.1490 -44.1490 -22.2606 -22.2606 -22.1829 -22.1829 -22.0848 -22.0848
    -8.0478  -8.0478  -6.9773  -6.9773  -5.7792  -5.7792  -4.7192  -4.7192
    -4.2605  -4.2605   0.5468   0.5468   0.9509   0.9509   1.1126   1.1126
     1.7376   1.7376   2.4863   2.4863   2.6476   2.6476   3.2819   3.2819
     3.6862   3.6862   4.0148   4.0148   4.1764   4.1764   4.4422   4.4422
     4.9124   4.9124   5.7916   5.7916   6.1386   6.1386   6.4776   6.4776
     7.3553   7.3553

          k = 0.5081 0.1290 0.0000 ( 36499 PWs)   bands (ev):

   -44.1481 -44.1481 -22.2559 -22.2559 -22.2058 -22.2058 -22.0823 -22.0822
    -7.7628  -7.5770  -6.9143  -6.7929  -5.8552  -5.2345  -4.9921  -4.6248
    -4.5778  -4.4891  -0.0030   0.4354   0.7065   0.9538   1.1617   1.3079
     1.6338   1.7158   1.7642   2.0778   2.1425   2.4138   2.5777   3.4330
     3.4747   3.5635   3.5659   3.6874   3.7648   3.8535   4.0025   4.2319
     4.3060   4.8543   5.8628   6.1742   6.2890   6.6107   6.6492   7.0612
     7.4298   7.5499

          k = 0.5081 0.1290 0.1485 ( 36476 PWs)   bands (ev):

   -44.1481 -44.1481 -22.2559 -22.2559 -22.2058 -22.2058 -22.0823 -22.0822
    -7.7404  -7.6107  -6.8896  -6.8057  -5.7959  -5.4030  -4.8555  -4.6156
    -4.6002  -4.5020   0.0524   0.3997   0.7835   0.8427   1.1593   1.2590
     1.4013   1.5833   2.0026   2.0902   2.3105   2.5011   2.8707   3.3606
     3.4564   3.4961   3.5376   3.6944   3.7623   3.7933   3.8819   4.2591
     4.3009   4.4637   6.2504   6.2998   6.4392   6.6102   6.7087   6.9336
     7.2857   7.5271

          k = 0.5081 0.1290-0.2971 ( 36466 PWs)   bands (ev):

   -44.1481 -44.1481 -22.2559 -22.2559 -22.2058 -22.2058 -22.0822 -22.0822
    -7.6810  -7.6810  -6.8421  -6.8421  -5.6312  -5.6312  -4.7063  -4.7063
    -4.5478  -4.5478   0.2155   0.2155   0.9533   0.9533   0.9851   0.9851
     1.4658   1.4658   2.0549   2.0549   2.6517   2.6517   3.1863   3.1863
     3.3875   3.3875   3.5855   3.5855   3.7613   3.7613   3.9181   3.9181
     4.3415   4.3415   6.4840   6.4840   6.5723   6.5723   6.8898   6.8898
     7.2512   7.2512

          k = 0.7622 0.1934 0.0000 ( 36521 PWs)   bands (ev):

   -44.1472 -44.1472 -22.2512 -22.2512 -22.2286 -22.2286 -22.0796 -22.0796
    -7.1934  -6.9988  -6.7699  -6.6476  -5.7289  -5.5330  -5.1521  -5.1339
    -4.4974  -4.4592  -0.2364   0.0243   0.1924   0.9118   0.9207   1.3012
     1.4893   1.5968   2.0150   2.1803   2.2269   2.2554   2.4568   2.8125
     2.9950   3.2366   3.3572   3.4546   3.5183   3.6683   3.7294   3.7513
     3.8700   4.5872   6.1847   6.4652   6.5701   6.9457   6.9702   7.0257
     7.3932   7.6329

          k = 0.7622 0.1934 0.1485 ( 36503 PWs)   bands (ev):

   -44.1472 -44.1472 -22.2512 -22.2512 -22.2286 -22.2286 -22.0796 -22.0796
    -7.1722  -7.0399  -6.7406  -6.6594  -5.6966  -5.5567  -5.1540  -5.1430
    -4.4900  -4.4634  -0.2008   0.0976   0.1484   0.7793   0.9465   1.2492
     1.4984   1.5974   2.0004   2.0295   2.1535   2.5716   2.7059   2.8991
     2.9531   3.0276   3.2731   3.3498   3.5094   3.6022   3.7573   3.9299
     3.9881   4.4630   6.0209   6.4475   6.7535   6.9010   7.0407   7.0887
     7.1908   7.6658

          k = 0.7622 0.1934-0.2971 ( 36522 PWs)   bands (ev):

   -44.1472 -44.1472 -22.2512 -22.2512 -22.2286 -22.2286 -22.0796 -22.0796
    -7.1142  -7.1142  -6.6931  -6.6931  -5.6225  -5.6225  -5.1538  -5.1538
    -4.4752  -4.4752  -0.0764  -0.0764   0.4473   0.4473   1.0780   1.0780
     1.5552   1.5552   1.9928   1.9928   2.4426   2.4426   2.8480   2.8480
     2.9583   2.9583   3.2661   3.2661   3.5943   3.5943   3.9627   3.9627
     4.0726   4.0726   6.3884   6.3884   6.5347   6.5347   7.0702   7.0702
     7.5700   7.5700

          k =-1.0162-0.2579 0.0000 ( 36506 PWs)   bands (ev):

   -44.1468 -44.1468 -22.2492 -22.2492 -22.2380 -22.2380 -22.0785 -22.0785
    -6.7653  -6.7441  -6.2885  -6.2766  -6.2739  -6.2696  -5.1792  -5.1787
    -4.4392  -4.4092  -0.1500  -0.1313   0.1549   0.1763   1.0116   1.0191
     1.4667   1.6585   2.2089   2.3702   2.3954   2.4229   2.7909   2.8358
     2.8407   2.8808   3.1772   3.2316   3.2968   3.3518   3.4331   3.6133
     3.9725   4.2299   6.6823   6.7512   6.8109   6.8278   7.1233   7.2191
     7.2202   7.2922

          k =-1.0162-0.2579 0.1485 ( 36506 PWs)   bands (ev):

   -44.1468 -44.1468 -22.2492 -22.2492 -22.2380 -22.2380 -22.0785 -22.0785
    -6.7602  -6.7449  -6.3240  -6.3168  -6.2379  -6.2336  -5.1776  -5.1773
    -4.4370  -4.4158  -0.2419  -0.2362   0.3408   0.3490   1.0071   1.0163
     1.4589   1.5897   2.0767   2.2116   2.3374   2.3921   2.6411   2.6621
     2.9244   3.0253   3.1079   3.2127   3.5121   3.5494   3.5826   3.6975
     4.1011   4.2505   6.2877   6.3096   6.5872   6.6646   7.2318   7.2386
     7.4506   7.5215

          k =-1.0162-0.2579-0.2971 ( 36528 PWs)   bands (ev):

   -44.1468 -44.1468 -22.2492 -22.2492 -22.2380 -22.2380 -22.0785 -22.0785
    -6.7504  -6.7504  -6.3388  -6.3388  -6.2193  -6.2193  -5.1760  -5.1760
    -4.4286  -4.4286  -0.2997  -0.2997   0.5151   0.5151   0.9800   0.9800
     1.5025   1.5025   1.9502   1.9502   2.3442   2.3442   2.7571   2.7571
     2.8110   2.8110   3.2012   3.2012   3.6280   3.6280   3.7766   3.7766
     4.3125   4.3125   5.9379   5.9379   6.5286   6.5286   7.2477   7.2477
     7.5898   7.5898

          k = 0.5081 0.0000 0.0000 ( 36503 PWs)   bands (ev):

   -44.1481 -44.1481 -22.2559 -22.2559 -22.2058 -22.2058 -22.0823 -22.0822
    -7.7647  -7.5774  -6.9146  -6.7919  -5.8522  -5.2338  -4.9898  -4.6180
    -4.5858  -4.4886   0.0015   0.4287   0.7067   0.9689   1.1578   1.2643
     1.6282   1.7047   1.7511   2.0851   2.1379   2.4018   2.5809   3.4252
     3.4972   3.5770   3.5922   3.6630   3.7774   3.9033   3.9826   4.2692
     4.3091   4.8446   5.8691   6.1497   6.3213   6.5742   6.5969   7.0994
     7.4349   7.5754

          k = 0.5081 0.0000 0.1485 ( 36453 PWs)   bands (ev):

   -44.1481 -44.1481 -22.2559 -22.2559 -22.2058 -22.2058 -22.0823 -22.0822
    -7.7422  -7.6115  -6.8894  -6.8047  -5.7935  -5.4021  -4.8522  -4.6162
    -4.5990  -4.5041   0.0557   0.3935   0.7874   0.8471   1.1694   1.2415
     1.3642   1.5610   2.0020   2.1051   2.2980   2.4878   2.8717   3.3762
     3.4743   3.4837   3.5497   3.7173   3.7454   3.8509   3.8532   4.2976
     4.3159   4.4459   6.2371   6.3102   6.4580   6.5667   6.6704   6.9677
     7.2987   7.5440

          k = 0.5081 0.0000-0.2971 ( 36452 PWs)   bands (ev):

   -44.1481 -44.1481 -22.2559 -22.2559 -22.2058 -22.2058 -22.0822 -22.0822
    -7.6823  -7.6823  -6.8412  -6.8412  -5.6297  -5.6297  -4.7030  -4.7030
    -4.5503  -4.5503   0.2153   0.2153   0.9525   0.9525   0.9890   0.9890
     1.4319   1.4319   2.0593   2.0593   2.6411   2.6411   3.1907   3.1907
     3.3964   3.3964   3.5886   3.5886   3.7927   3.7927   3.9051   3.9051
     4.3590   4.3590   6.4981   6.4981   6.5367   6.5367   6.9079   6.9079
     7.2527   7.2527

          k = 0.7622 0.0645 0.0000 ( 36505 PWs)   bands (ev):

   -44.1472 -44.1472 -22.2512 -22.2512 -22.2286 -22.2286 -22.0796 -22.0796
    -7.1983  -6.9997  -6.7671  -6.6444  -5.7294  -5.5309  -5.1508  -5.1344
    -4.4861  -4.4711  -0.2279   0.0223   0.2011   0.9022   0.9507   1.3144
     1.4593   1.5586   1.9775   2.1707   2.2634   2.2691   2.3972   2.7884
     2.9857   3.2799   3.3658   3.4606   3.5855   3.6923   3.7009   3.7325
     3.8405   4.6087   6.1822   6.4357   6.5953   6.9435   6.9855   7.0011
     7.4000   7.6737

          k = 0.7622 0.0645 0.1485 ( 36509 PWs)   bands (ev):

   -44.1472 -44.1472 -22.2512 -22.2512 -22.2286 -22.2286 -22.0796 -22.0796
    -7.1767  -7.0419  -6.7371  -6.6559  -5.6971  -5.5555  -5.1529  -5.1429
    -4.4821  -4.4718  -0.1925   0.1071   0.1437   0.7692   0.9736   1.2620
     1.4705   1.5935   1.9721   1.9872   2.1363   2.5722   2.7075   2.8882
     2.9423   3.0322   3.3118   3.3535   3.5541   3.5923   3.7298   3.9647
     3.9749   4.4553   6.0452   6.4237   6.7715   6.9014   7.0152   7.1278
     7.1632   7.6932

          k = 0.7622 0.0645-0.2971 ( 36472 PWs)   bands (ev):

   -44.1472 -44.1472 -22.2512 -22.2512 -22.2286 -22.2286 -22.0796 -22.0796
    -7.1177  -7.1177  -6.6892  -6.6892  -5.6226  -5.6226  -5.1530  -5.1530
    -4.4753  -4.4753  -0.0683  -0.0683   0.4407   0.4407   1.0970   1.0970
     1.5504   1.5504   1.9394   1.9394   2.4411   2.4411   2.8529   2.8529
     2.9358   2.9358   3.3149   3.3149   3.5911   3.5911   3.9798   3.9798
     4.0500   4.0500   6.4163   6.4163   6.5331   6.5331   7.0407   7.0407
     7.5971   7.5971

          k = 1.0162 0.1290 0.0000 ( 36514 PWs)   bands (ev):

   -44.1468 -44.1468 -22.2492 -22.2492 -22.2380 -22.2380 -22.0785 -22.0785
    -6.7653  -6.7441  -6.2883  -6.2767  -6.2739  -6.2696  -5.1792  -5.1787
    -4.4392  -4.4092  -0.1556  -0.1256   0.1524   0.1789   1.0032   1.0283
     1.4738   1.6481   2.2048   2.3768   2.4012   2.4150   2.7652   2.8443
     2.8734   2.8796   3.1947   3.1982   3.2909   3.3371   3.4718   3.6006
     3.9550   4.2471   6.6760   6.7610   6.7930   6.8456   7.1488   7.2190
     7.2222   7.2701

          k = 1.0162 0.1290 0.1485 ( 36524 PWs)   bands (ev):

   -44.1468 -44.1468 -22.2492 -22.2492 -22.2380 -22.2380 -22.0785 -22.0785
    -6.7602  -6.7449  -6.3240  -6.3169  -6.2379  -6.2336  -5.1776  -5.1773
    -4.4370  -4.4158  -0.2443  -0.2340   0.3420   0.3483   1.0050   1.0185
     1.4654   1.5830   2.0845   2.1950   2.3408   2.3925   2.6221   2.6878
     2.9195   3.0373   3.1087   3.2045   3.5079   3.5249   3.6212   3.6894
     4.0800   4.2699   6.2835   6.3195   6.5835   6.6668   7.2339   7.2386
     7.4611   7.5120

          k = 1.0162 0.1290-0.2971 ( 36516 PWs)   bands (ev):

   -44.1468 -44.1468 -22.2492 -22.2492 -22.2380 -22.2380 -22.0785 -22.0785
    -6.7504  -6.7504  -6.3388  -6.3388  -6.2193  -6.2193  -5.1760  -5.1760
    -4.4286  -4.4286  -0.2998  -0.2998   0.5154   0.5154   0.9798   0.9798
     1.5037   1.5037   1.9508   1.9508   2.3385   2.3385   2.7353   2.7353
     2.8436   2.8436   3.1928   3.1928   3.6295   3.6295   3.7760   3.7760
     4.3131   4.3131   5.9408   5.9408   6.5278   6.5278   7.2485   7.2485
     7.5906   7.5906

          k =-0.7622-0.3224 0.0000 ( 36511 PWs)   bands (ev):

   -44.1472 -44.1472 -22.2512 -22.2512 -22.2286 -22.2286 -22.0796 -22.0796
    -7.1863  -6.9976  -6.7743  -6.6517  -5.7282  -5.5358  -5.1537  -5.1334
    -4.5060  -4.4496  -0.2482   0.0276   0.1797   0.8871   0.9252   1.2852
     1.5031   1.6660   2.0919   2.1919   2.2107   2.2395   2.4684   2.8498
     3.0040   3.2076   3.3442   3.4498   3.4944   3.6229   3.6895   3.7055
     3.9958   4.5492   6.1883   6.4971   6.5586   6.8653   7.0103   7.0939
     7.3719   7.5762

          k =-0.7622-0.3224 0.1485 ( 36492 PWs)   bands (ev):

   -44.1472 -44.1472 -22.2512 -22.2512 -22.2286 -22.2286 -22.0796 -22.0796
    -7.1656  -7.0371  -6.7460  -6.6642  -5.6959  -5.5584  -5.1555  -5.1432
    -4.4960  -4.4566  -0.2124   0.0866   0.1526   0.7933   0.9152   1.2315
     1.5249   1.6111   2.0163   2.1146   2.1860   2.5708   2.6792   2.9218
     2.9560   3.0494   3.2388   3.3238   3.4752   3.5821   3.7721   3.8791
     4.0329   4.4719   5.9890   6.4852   6.7207   6.8977   7.0358   7.1113
     7.2147   7.6068

          k =-0.7622-0.3224-0.2971 ( 36508 PWs)   bands (ev):

   -44.1472 -44.1472 -22.2512 -22.2512 -22.2286 -22.2286 -22.0796 -22.0796
    -7.1091  -7.1091  -6.6989  -6.6989  -5.6224  -5.6224  -5.1549  -5.1549
    -4.4750  -4.4750  -0.0876  -0.0876   0.4561   0.4561   1.0554   1.0554
     1.5629   1.5629   2.0587   2.0587   2.4564   2.4564   2.8429   2.8429
     2.9895   2.9895   3.1988   3.1988   3.5916   3.5916   3.9206   3.9206
     4.1218   4.1218   6.3538   6.3538   6.5344   6.5344   7.1168   7.1168
     7.5169   7.5169

          k =-0.5081-0.2579 0.0000 ( 36480 PWs)   bands (ev):

   -44.1481 -44.1481 -22.2560 -22.2559 -22.2058 -22.2058 -22.0823 -22.0822
    -7.7582  -7.5761  -6.9141  -6.7949  -5.8624  -5.2360  -4.9979  -4.6347
    -4.5650  -4.4903  -0.0134   0.4512   0.7049   0.9268   1.1709   1.4134
     1.6436   1.7517   1.7965   2.0650   2.1425   2.4391   2.5679   3.3869
     3.4556   3.5406   3.5579   3.6989   3.7200   3.7684   4.0529   4.1425
     4.2956   4.8752   5.8500   6.1977   6.2487   6.7043   6.7747   6.9724
     7.4112   7.4934

          k =-0.5081-0.2579 0.1485 ( 36485 PWs)   bands (ev):

   -44.1481 -44.1481 -22.2559 -22.2559 -22.2058 -22.2058 -22.0823 -22.0822
    -7.7361  -7.6089  -6.8905  -6.8079  -5.8020  -5.4050  -4.8633  -4.6140
    -4.6030  -4.4971   0.0447   0.4141   0.7760   0.8300   1.1502   1.2868
     1.4983   1.6459   1.9923   2.0646   2.3358   2.5285   2.8671   3.2991
     3.4462   3.5001   3.5207   3.6564   3.6852   3.7763   3.9384   4.1759
     4.2665   4.4942   6.2642   6.2853   6.4026   6.7053   6.8115   6.8609
     7.2467   7.4917

          k =-0.5081-0.2579-0.2971 ( 36478 PWs)   bands (ev):

   -44.1481 -44.1481 -22.2559 -22.2559 -22.2058 -22.2058 -22.0822 -22.0822
    -7.6777  -7.6777  -6.8442  -6.8442  -5.6348  -5.6348  -4.7140  -4.7140
    -4.5423  -4.5423   0.2158   0.2158   0.9548   0.9548   0.9773   0.9773
     1.5554   1.5554   2.0385   2.0385   2.6835   2.6835   3.1567   3.1567
     3.3701   3.3701   3.5660   3.5660   3.7083   3.7083   3.9455   3.9455
     4.3018   4.3018   6.4514   6.4514   6.6500   6.6500   6.8493   6.8493
     7.2547   7.2547

          k =-0.2541-0.1934 0.0000 ( 36410 PWs)   bands (ev):

   -44.1490 -44.1490 -22.2606 -22.2606 -22.1829 -22.1829 -22.0849 -22.0847
    -8.1293  -7.9410  -7.0642  -6.9161  -6.0324  -5.3587  -4.7783  -4.7291
    -4.6755  -3.9500   0.3154   0.8605   0.9205   1.0234   1.2828   1.4931
     1.5088   1.5662   1.7883   2.5662   2.6187   3.1872   3.3576   3.6772
     3.7300   3.7545   3.8828   3.8977   3.9184   4.1999   4.3089   4.3714
     4.3940   4.6501   6.0008   6.0268   6.2372   6.4434   6.4875   6.7631
     7.0194   7.1621

          k =-0.2541-0.1934 0.1485 ( 36427 PWs)   bands (ev):

   -44.1490 -44.1490 -22.2606 -22.2606 -22.1829 -22.1829 -22.0849 -22.0848
    -8.1063  -7.9746  -7.0348  -6.9320  -5.9686  -5.5283  -4.7546  -4.6914
    -4.5532  -4.0337   0.3830   0.7714   0.9097   1.0654   1.1716   1.2549
     1.5924   1.7241   2.1005   2.5664   2.6063   2.9422   3.4330   3.4791
     3.5327   3.7791   3.8590   3.9095   4.0258   4.1918   4.3743   4.3963
     4.6346   4.7743   5.8943   6.0298   6.1262   6.2963   6.3515   6.8139
     7.1720   7.2301

          k =-0.2541-0.1934-0.2971 ( 36422 PWs)   bands (ev):

   -44.1490 -44.1490 -22.2606 -22.2606 -22.1829 -22.1829 -22.0848 -22.0848
    -8.0455  -8.0455  -6.9769  -6.9769  -5.7861  -5.7861  -4.7225  -4.7225
    -4.2593  -4.2593   0.5657   0.5657   0.9631   0.9631   1.1591   1.1591
     1.7461   1.7461   2.4879   2.4879   2.6486   2.6486   3.2872   3.2872
     3.7060   3.7060   3.8494   3.8494   4.1513   4.1513   4.3888   4.3888
     4.9288   4.9288   5.7677   5.7677   6.1902   6.1902   6.5109   6.5109
     7.3453   7.3453

          k = 0.0000-0.1290 0.0000 ( 36417 PWs)   bands (ev):

   -44.1493 -44.1493 -22.2626 -22.2626 -22.1734 -22.1734 -22.0860 -22.0858
    -8.2570  -8.0654  -7.1294  -6.9651  -6.0868  -5.4060  -4.7952  -4.7342
    -4.6875  -3.7645   0.2291   0.8009   0.8758   1.1744   1.2843   1.5658
     1.8011   1.9097   2.2587   2.8200   2.9194   2.9780   3.2413   3.4264
     3.8343   3.9403   3.9647   4.0130   4.2867   4.3661   4.4290   4.6749
     4.7412   5.2599   5.6450   5.9154   5.9393   5.9400   6.0849   6.7276
     7.1066   7.2273

          k = 0.0000-0.1290 0.1485 ( 36419 PWs)   bands (ev):

   -44.1493 -44.1493 -22.2626 -22.2626 -22.1734 -22.1734 -22.0860 -22.0858
    -8.2336  -8.0996  -7.0967  -6.9825  -6.0238  -5.5781  -4.7848  -4.7381
    -4.4921  -3.8719   0.3082   0.8926   0.9302   0.9425   1.1413   1.8151
     1.8569   1.8916   2.0178   2.8377   2.9075   3.0234   3.3627   3.5166
     3.8102   3.9391   3.9882   4.0068   4.2826   4.3271   4.4338   4.6881
     4.7330   4.8406   5.8568   5.8893   5.9146   6.2233   6.2889   6.5864
     6.9149   7.0690

          k = 0.0000-0.1290-0.2971 ( 36464 PWs)   bands (ev):

   -44.1493 -44.1493 -22.2626 -22.2626 -22.1734 -22.1734 -22.0859 -22.0859
    -8.1718  -8.1718  -7.0322  -7.0322  -5.8407  -5.8407  -4.7612  -4.7612
    -4.1497  -4.1497   0.5425   0.5425   1.0073   1.0073   1.3530   1.3530
     1.8513   1.8513   2.5568   2.5568   2.8754   2.8754   3.6248   3.6248
     3.8684   3.8684   4.1194   4.1194   4.2131   4.2131   4.4328   4.4328
     4.7122   4.7122   5.8904   5.8904   6.2271   6.2271   6.5513   6.5513
     6.7397   6.7397

          k = 1.0162 0.0000 0.0000 ( 36499 PWs)   bands (ev):

   -44.1468 -44.1468 -22.2492 -22.2492 -22.2380 -22.2380 -22.0785 -22.0785
    -6.7653  -6.7441  -6.2882  -6.2769  -6.2739  -6.2696  -5.1792  -5.1787
    -4.4392  -4.4092  -0.1596  -0.1215   0.1503   0.1811   0.9988   1.0334
     1.4819   1.6367   2.2009   2.3890   2.4015   2.4067   2.7530   2.8569
     2.8571   2.9112   3.1672   3.2266   3.2787   3.3149   3.5161   3.5780
     3.9397   4.2624   6.6709   6.7699   6.7831   6.8555   7.1970   7.2194
     7.2239   7.2253

          k = 1.0162 0.0000 0.1485 ( 36485 PWs)   bands (ev):

   -44.1468 -44.1468 -22.2492 -22.2492 -22.2380 -22.2380 -22.0785 -22.0785
    -6.7602  -6.7449  -6.3239  -6.3169  -6.2378  -6.2336  -5.1776  -5.1773
    -4.4370  -4.4158  -0.2460  -0.2326   0.3436   0.3472   1.0035   1.0201
     1.4729   1.5753   2.0945   2.1767   2.3458   2.3905   2.6147   2.7007
     2.9183   3.0462   3.1120   3.1944   3.4942   3.5247   3.6543   3.6723
     4.0625   4.2858   6.2813   6.3273   6.5801   6.6689   7.2368   7.2378
     7.4824   7.4919

          k = 1.0162 0.0000-0.2971 ( 36514 PWs)   bands (ev):

   -44.1468 -44.1468 -22.2492 -22.2492 -22.2380 -22.2380 -22.0785 -22.0785
    -6.7504  -6.7504  -6.3388  -6.3388  -6.2193  -6.2193  -5.1760  -5.1760
    -4.4286  -4.4286  -0.2999  -0.2999   0.5157   0.5157   0.9795   0.9795
     1.5049   1.5049   1.9514   1.9514   2.3330   2.3330   2.7225   2.7225
     2.8677   2.8677   3.1839   3.1839   3.6311   3.6311   3.7755   3.7755
     4.3137   4.3137   5.9438   5.9438   6.5269   6.5269   7.2493   7.2493
     7.5914   7.5914

          k = 1.2703 0.0645 0.0000 ( 36468 PWs)   bands (ev):

   -44.1472 -44.1472 -22.2512 -22.2512 -22.2286 -22.2286 -22.0796 -22.0796
    -7.1811  -6.9968  -6.7779  -6.6543  -5.7277  -5.5378  -5.1548  -5.1331
    -4.5105  -4.4444  -0.2564   0.0303   0.1703   0.8675   0.9346   1.2751
     1.5042   1.7173   2.1744   2.1954   2.2183   2.2340   2.4162   2.8799
     3.0057   3.1945   3.3745   3.4354   3.5074   3.5791   3.6199   3.6785
     4.0932   4.5117   6.1908   6.5034   6.5774   6.8065   7.0403   7.1602
     7.3391   7.5565

          k = 1.2703 0.0645 0.1485 ( 36490 PWs)   bands (ev):

   -44.1472 -44.1472 -22.2512 -22.2512 -22.2286 -22.2286 -22.0796 -22.0796
    -7.1607  -7.0351  -6.7501  -6.6674  -5.6953  -5.5596  -5.1565  -5.1434
    -4.4992  -4.4530  -0.2205   0.0797   0.1546   0.8031   0.8965   1.2201
     1.5348   1.6270   2.0262   2.1684   2.2285   2.5776   2.6307   2.9443
     2.9541   3.0812   3.2215   3.2905   3.4852   3.5344   3.7721   3.8390
     4.0805   4.4759   5.9684   6.5164   6.6909   6.8940   7.0163   7.1739
     7.2171   7.5543

          k = 1.2703 0.0645-0.2971 ( 36480 PWs)   bands (ev):

   -44.1472 -44.1472 -22.2512 -22.2512 -22.2286 -22.2286 -22.0796 -22.0796
    -7.1054  -7.1054  -6.7030  -6.7030  -5.6223  -5.6223  -5.1557  -5.1557
    -4.4748  -4.4748  -0.0954  -0.0954   0.4620   0.4620   1.0418   1.0418
     1.5691   1.5691   2.0967   2.0967   2.4784   2.4784   2.8407   2.8407
     3.0083   3.0083   3.1527   3.1527   3.5848   3.5848   3.8873   3.8873
     4.1597   4.1597   6.3321   6.3321   6.5332   6.5332   7.1545   7.1545
     7.4664   7.4664

          k =-0.5081-0.3869 0.0000 ( 36463 PWs)   bands (ev):

   -44.1481 -44.1481 -22.2560 -22.2559 -22.2058 -22.2058 -22.0823 -22.0822
    -7.7535  -7.5751  -6.9146  -6.7962  -5.8698  -5.2375  -5.0036  -4.6409
    -4.5558  -4.4915  -0.0237   0.4663   0.7017   0.9075   1.1800   1.5395
     1.6542   1.7754   1.8301   2.0438   2.1653   2.4387   2.5551   3.2885
     3.4871   3.5382   3.5662   3.5833   3.7267   3.7487   4.0071   4.1402
     4.2828   4.8930   5.8395   6.1189   6.3145   6.8075   6.8859   6.9093
     7.3684   7.4587

          k =-0.5081-0.3869 0.1485 ( 36477 PWs)   bands (ev):

   -44.1481 -44.1481 -22.2560 -22.2559 -22.2058 -22.2058 -22.0823 -22.0822
    -7.7318  -7.6071  -6.8918  -6.8097  -5.8080  -5.4069  -4.8710  -4.6119
    -4.6062  -4.4926   0.0372   0.4282   0.7725   0.8129   1.1489   1.3082
     1.6206   1.7193   1.9604   2.0364   2.3842   2.5255   2.8609   3.2210
     3.4299   3.4949   3.5163   3.5781   3.6883   3.7485   3.9749   4.1238
     4.2244   4.5196   6.2131   6.3221   6.3808   6.7648   6.8092   6.9519
     7.1886   7.4759

          k =-0.5081-0.3869-0.2971 ( 36492 PWs)   bands (ev):

   -44.1481 -44.1481 -22.2559 -22.2559 -22.2058 -22.2058 -22.0822 -22.0822
    -7.6744  -7.6744  -6.8464  -6.8464  -5.6384  -5.6384  -4.7213  -4.7213
    -4.5372  -4.5372   0.2161   0.2161   0.9564   0.9564   0.9704   0.9704
     1.6658   1.6658   2.0050   2.0050   2.7308   2.7308   3.0846   3.0846
     3.3631   3.3631   3.5378   3.5378   3.6821   3.6821   3.9637   3.9637
     4.2701   4.2701   6.4203   6.4203   6.6987   6.6987   6.8278   6.8278
     7.2776   7.2776

          k =-0.2541-0.3224 0.0000 ( 36485 PWs)   bands (ev):

   -44.1490 -44.1490 -22.2607 -22.2606 -22.1829 -22.1829 -22.0849 -22.0847
    -8.1247  -7.9401  -7.0598  -6.9162  -6.0487  -5.3644  -4.8022  -4.7209
    -4.6642  -3.9511   0.3405   0.8525   0.9280   1.1338   1.3251   1.5038
     1.5453   1.6424   1.8203   2.5007   2.5755   3.2028   3.4463   3.5689
     3.6197   3.6726   3.7477   3.8994   3.9524   4.1339   4.1825   4.2912
     4.3538   4.7004   6.0722   6.0933   6.3016   6.4585   6.5171   6.8373
     6.9409   7.0814

          k =-0.2541-0.3224 0.1485 ( 36445 PWs)   bands (ev):

   -44.1490 -44.1490 -22.2606 -22.2606 -22.1829 -22.1829 -22.0849 -22.0848
    -8.1021  -7.9729  -7.0319  -6.9321  -5.9828  -5.5346  -4.7717  -4.6845
    -4.5488  -4.0338   0.4082   0.7731   0.9165   1.1550   1.2315   1.3134
     1.6051   1.7483   2.1547   2.5037   2.5662   2.9584   3.4260   3.4929
     3.5781   3.6033   3.6620   3.9078   3.9619   4.1307   4.2945   4.3476
     4.6214   4.8088   5.8976   6.0414   6.1472   6.3572   6.4550   6.7864
     7.1477   7.2151

          k =-0.2541-0.3224-0.2971 ( 36442 PWs)   bands (ev):

   -44.1490 -44.1490 -22.2606 -22.2606 -22.1829 -22.1829 -22.0848 -22.0848
    -8.0423  -8.0423  -6.9763  -6.9763  -5.7958  -5.7958  -4.7272  -4.7272
    -4.2575  -4.2575   0.5862   0.5862   0.9756   0.9756   1.2501   1.2501
     1.7632   1.7632   2.4776   2.4776   2.6470   2.6470   3.2886   3.2886
     3.5787   3.5787   3.8110   3.8110   4.0911   4.0911   4.3274   4.3274
     4.9501   4.9501   5.7427   5.7427   6.2142   6.2142   6.5683   6.5683
     7.3361   7.3361

          k = 0.0000-0.2579 0.0000 ( 36445 PWs)   bands (ev):

   -44.1493 -44.1493 -22.2626 -22.2626 -22.1734 -22.1734 -22.0860 -22.0858
    -8.2529  -8.0646  -7.1233  -6.9650  -6.1046  -5.4130  -4.8153  -4.7248
    -4.6814  -3.7654   0.2594   0.8090   0.9838   1.2274   1.3107   1.6357
     1.8005   1.9087   2.2527   2.8375   2.9278   2.9882   3.2315   3.5336
     3.5994   3.6828   3.9124   3.9641   4.1595   4.3011   4.3668   4.6432
     4.7381   5.2279   5.6903   5.9997   6.0060   6.0249   6.1044   6.7613
     7.0950   7.1066

          k = 0.0000-0.2579 0.1485 ( 36452 PWs)   bands (ev):

   -44.1493 -44.1493 -22.2626 -22.2626 -22.1734 -22.1734 -22.0860 -22.0858
    -8.2299  -8.0980  -7.0923  -6.9822  -6.0395  -5.5859  -4.8006  -4.7298
    -4.4901  -3.8721   0.3394   0.9407   0.9498   1.0288   1.1991   1.8145
     1.8679   1.8907   2.0612   2.8539   2.9173   3.0340   3.3314   3.5445
     3.6775   3.7000   3.9108   3.9617   4.2027   4.2716   4.3140   4.6697
     4.7294   4.8357   5.9067   5.9492   5.9894   6.2388   6.3071   6.6080
     6.9178   6.9762

          k = 0.0000-0.2579-0.2971 ( 36454 PWs)   bands (ev):

   -44.1493 -44.1493 -22.2626 -22.2626 -22.1734 -22.1734 -22.0859 -22.0859
    -8.1689  -8.1689  -7.0305  -7.0305  -5.8520  -5.8520  -4.7651  -4.7651
    -4.1487  -4.1487   0.5777   0.5777   1.0871   1.0871   1.3665   1.3665
     1.8506   1.8506   2.5883   2.5883   2.8884   2.8884   3.5247   3.5247
     3.7812   3.7812   4.0977   4.0977   4.1048   4.1048   4.3747   4.3747
     4.7052   4.7052   5.9430   5.9430   6.2615   6.2615   6.5601   6.5601
     6.6999   6.6999

          k = 1.5243 0.0000 0.0000 ( 36439 PWs)   bands (ev):

   -44.1481 -44.1481 -22.2560 -22.2559 -22.2058 -22.2058 -22.0823 -22.0822
    -7.7515  -7.5747  -6.9150  -6.7966  -5.8729  -5.2381  -5.0060  -4.6429
    -4.5526  -4.4920  -0.0278   0.4724   0.6997   0.9011   1.1838   1.6084
     1.6738   1.7509   1.8445   2.0329   2.1999   2.4158   2.5488   3.2542
     3.5013   3.5048   3.5700   3.5722   3.7056   3.7722   3.9463   4.1677
     4.2771   4.8994   5.8357   6.0837   6.3460   6.8501   6.8546   6.9740
     7.3331   7.5049

          k = 1.5243 0.0000 0.1485 ( 36476 PWs)   bands (ev):

   -44.1481 -44.1481 -22.2560 -22.2559 -22.2058 -22.2058 -22.0823 -22.0822
    -7.7300  -7.6064  -6.8925  -6.8103  -5.8106  -5.4077  -4.8741  -4.6103
    -4.6081  -4.4908   0.0342   0.4339   0.7734   0.8034   1.1496   1.3160
     1.7181   1.7199   1.9452   2.0115   2.4613   2.4651   2.8560   3.1948
     3.3941   3.4968   3.5230   3.5648   3.6958   3.7331   3.9602   4.1369
     4.1968   4.5298   6.1874   6.3391   6.3758   6.7381   6.8436   7.0252
     7.1453   7.4968

          k = 1.5243 0.0000-0.2971 ( 36508 PWs)   bands (ev):

   -44.1481 -44.1481 -22.2559 -22.2559 -22.2058 -22.2058 -22.0822 -22.0822
    -7.6730  -7.6730  -6.8474  -6.8474  -5.6399  -5.6399  -4.7243  -4.7243
    -4.5352  -4.5352   0.2162   0.2162   0.9576   0.9576   0.9672   0.9672
     1.7259   1.7259   1.9783   1.9783   2.7606   2.7606   3.0356   3.0356
     3.3640   3.3640   3.5272   3.5272   3.6754   3.6754   3.9667   3.9667
     4.2610   4.2610   6.4077   6.4077   6.7016   6.7016   6.8317   6.8317
     7.2972   7.2972

          k =-0.2541-0.4514 0.0000 ( 36444 PWs)   bands (ev):

   -44.1490 -44.1490 -22.2607 -22.2606 -22.1829 -22.1829 -22.0849 -22.0847
    -8.1215  -7.9395  -7.0572  -6.9157  -6.0604  -5.3684  -4.8164  -4.7145
    -4.6596  -3.9518   0.3531   0.8494   0.9311   1.2538   1.3260   1.5162
     1.5713   1.7213   1.8552   2.4307   2.5047   3.2498   3.4183   3.4668
     3.5100   3.6612   3.8151   3.9021   3.9559   4.0301   4.0996   4.2339
     4.3418   4.7325   6.0964   6.1719   6.3131   6.4922   6.5388   6.8549
     6.8838   7.0438

          k =-0.2541-0.4514 0.1485 ( 36461 PWs)   bands (ev):

   -44.1490 -44.1490 -22.2606 -22.2606 -22.1829 -22.1829 -22.0849 -22.0848
    -8.0991  -7.9716  -7.0302  -6.9318  -5.9929  -5.5390  -4.7823  -4.6807
    -4.5460  -4.0339   0.4212   0.7746   0.9193   1.1999   1.3104   1.3659
     1.6200   1.7772   2.2108   2.4365   2.4909   2.9893   3.3609   3.4109
     3.5227   3.5523   3.7492   3.9005   3.9315   4.0013   4.2612   4.3244
     4.6157   4.8308   5.8994   6.0422   6.1759   6.3769   6.5221   6.7464
     7.1520   7.2030

          k =-0.2541-0.4514-0.2971 ( 36490 PWs)   bands (ev):

   -44.1490 -44.1490 -22.2606 -22.2606 -22.1829 -22.1829 -22.0848 -22.0848
    -8.0400  -8.0400  -6.9759  -6.9759  -5.8026  -5.8026  -4.7306  -4.7306
    -4.2562  -4.2562   0.5968   0.5968   0.9815   0.9815   1.3354   1.3354
     1.7824   1.7824   2.4467   2.4467   2.6486   2.6486   3.2690   3.2690
     3.4581   3.4581   3.8759   3.8759   4.0097   4.0097   4.2957   4.2957
     4.9641   4.9641   5.7279   5.7279   6.2125   6.2125   6.6069   6.6069
     7.3339   7.3339

          k = 0.0000-0.3869 0.0000 ( 36477 PWs)   bands (ev):

   -44.1493 -44.1493 -22.2626 -22.2626 -22.1734 -22.1734 -22.0860 -22.0858
    -8.2488  -8.0638  -7.1179  -6.9640  -6.1229  -5.4200  -4.8328  -4.7110
    -4.6822  -3.7663   0.2806   0.8185   1.1290   1.2905   1.3351   1.7110
     1.8000   1.9077   2.2481   2.8564   2.9359   3.0097   3.1718   3.2880
     3.4781   3.6907   3.8841   3.9764   4.0226   4.1289   4.3674   4.6116
     4.7353   5.2069   5.7358   6.0546   6.0816   6.0873   6.1242   6.7620
     6.9819   7.1065

          k = 0.0000-0.3869 0.1485 ( 36452 PWs)   bands (ev):

   -44.1493 -44.1493 -22.2626 -22.2626 -22.1734 -22.1734 -22.0860 -22.0858
    -8.2261  -8.0965  -7.0883  -6.9812  -6.0555  -5.5935  -4.8137  -4.7241
    -4.4884  -3.8724   0.3608   0.9605   0.9731   1.1766   1.2716   1.8139
     1.8801   1.8898   2.1091   2.8712   2.9269   3.0258   3.2203   3.3372
     3.4950   3.7814   3.9348   3.9381   4.0771   4.1536   4.2593   4.6525
     4.7261   4.8347   5.9602   5.9989   6.0320   6.2548   6.3186   6.5998
     6.8948   6.9208

          k = 0.0000-0.3869-0.2971 ( 36454 PWs)   bands (ev):

   -44.1493 -44.1493 -22.2626 -22.2626 -22.1734 -22.1734 -22.0859 -22.0859
    -8.1660  -8.1660  -7.0288  -7.0288  -5.8631  -5.8631  -4.7690  -4.7690
    -4.1477  -4.1477   0.6018   0.6018   1.1966   1.1966   1.3846   1.3846
     1.8500   1.8500   2.6211   2.6211   2.9019   2.9019   3.2678   3.2678
     3.8344   3.8344   4.0200   4.0200   4.0753   4.0753   4.3206   4.3206
     4.6987   4.6987   5.9697   5.9697   6.2960   6.2960   6.5692   6.5692
     6.6492   6.6492

          k =-2.0325 0.0000 0.0000 ( 36452 PWs)   bands (ev):

   -44.1493 -44.1493 -22.2626 -22.2626 -22.1734 -22.1734 -22.0860 -22.0858
    -8.2471  -8.0634  -7.1158  -6.9632  -6.1306  -5.4228  -4.8395  -4.7018
    -4.6866  -3.7666   0.2867   0.8228   1.2565   1.2593   1.3446   1.7556
     1.7997   1.9073   2.2466   2.8647   2.9389   3.0225   3.0878   3.1706
     3.4311   3.8571   3.8722   3.8908   3.9823   4.0295   4.3676   4.5986
     4.7342   5.1998   5.7544   6.0721   6.0993   6.1301   6.1325   6.7366
     6.9517   7.1064

          k =-2.0325 0.0000 0.1485 ( 36456 PWs)   bands (ev):

   -44.1493 -44.1493 -22.2626 -22.2626 -22.1734 -22.1734 -22.0860 -22.0858
    -8.2245  -8.0958  -7.0868  -6.9806  -6.0622  -5.5966  -4.8188  -4.7221
    -4.4877  -3.8724   0.3668   0.9695   0.9823   1.2677   1.2909   1.8137
     1.8856   1.8894   2.1339   2.8788   2.9307   2.9957   3.1067   3.2818
     3.4555   3.8934   3.9234   3.9528   4.0072   4.0435   4.2539   4.6457
     4.7247   4.8344   5.9822   6.0242   6.0410   6.2615   6.3219   6.5811
     6.8695   6.9221

          k =-2.0325 0.0000-0.2971 ( 36460 PWs)   bands (ev):

   -44.1493 -44.1493 -22.2626 -22.2626 -22.1734 -22.1734 -22.0859 -22.0859
    -8.1648  -8.1648  -7.0281  -7.0281  -5.8678  -5.8678  -4.7706  -4.7706
    -4.1473  -4.1473   0.6090   0.6090   1.2510   1.2510   1.3959   1.3959
     1.8497   1.8497   2.6348   2.6348   2.9076   2.9076   3.1469   3.1469
     3.8902   3.8902   3.9604   3.9604   4.0658   4.0658   4.3009   4.3009
     4.6962   4.6962   5.9760   5.9760   6.3100   6.3100   6.5730   6.5730
     6.6260   6.6260

     the Fermi energy is     5.4530 ev

!    total energy              =   -4240.93485366 Ry

     total all-electron energy =   -150287.628548 Ry
     estimated scf accuracy    <          3.2E-13 Ry
     smearing contrib. (-TS)   =       0.00000000 Ry
     internal energy E=F+TS    =   -4240.93485366 Ry

     The total energy is F=E-TS. E is the sum of the following terms:
     one-electron contribution =    -168.57465849 Ry
     hartree contribution      =     117.73929289 Ry
     xc contribution           =    -201.61191925 Ry
     ewald contribution        =    -220.94773166 Ry
     one-center paw contrib.   =   -3767.53983716 Ry

     convergence has been achieved in  18 iterations

     Forces acting on atoms (cartesian axes, Ry/au):

     atom    1 type  1   force =     0.00000000    0.01754999    0.00000000
     atom    2 type  1   force =     0.00000000   -0.01754999    0.00000000
     atom    3 type  2   force =     0.00000000   -0.00017860    0.00000000
     atom    4 type  2   force =     0.00000000    0.00017860    0.00000000
     atom    5 type  2   force =     0.00000000   -0.00406627   -0.00246959
     atom    6 type  2   force =    -0.00000000    0.00406627    0.00246959
     atom    7 type  2   force =     0.00000000   -0.00406627    0.00246959
     atom    8 type  2   force =     0.00000000    0.00406627   -0.00246959
     atom    9 type  2   force =     0.00000000   -0.03176549   -0.03652656
     atom   10 type  2   force =     0.00000000    0.03176549    0.03652656
     atom   11 type  2   force =     0.00000000   -0.03176549    0.03652656
     atom   12 type  2   force =     0.00000000    0.03176549   -0.03652656

     Total force =     0.100397     Total SCF correction =     0.000001


     Computing stress (Cartesian axis) and pressure

          total   stress  (Ry/bohr**3)                   (kbar)     P=        8.63
   0.00006634   0.00000000   0.00000000            9.76        0.00        0.00
   0.00000000   0.00003265   0.00000000            0.00        4.80        0.00
   0.00000000   0.00000000   0.00007711            0.00        0.00       11.34

 
     init_run     :     19.32s CPU     19.79s WALL (       1 calls)
     electrons    :    945.44s CPU    956.53s WALL (       1 calls)
     forces       :      6.77s CPU      6.98s WALL (       1 calls)
     stress       :     42.91s CPU     43.51s WALL (       1 calls)

     Called by init_run:
     wfcinit      :     14.96s CPU     15.14s WALL (       1 calls)
     potinit      :      1.41s CPU      1.45s WALL (       1 calls)
     hinit0       :      1.66s CPU      1.72s WALL (       1 calls)

     Called by electrons:
     c_bands      :    783.32s CPU    786.60s WALL (      19 calls)
     sum_band     :    135.16s CPU    139.31s WALL (      19 calls)
     v_of_rho     :      5.87s CPU      6.16s WALL (      19 calls)
     newd         :     14.86s CPU     18.37s WALL (      19 calls)
     PAW_pot      :      6.23s CPU      6.24s WALL (      19 calls)
     mix_rho      :      0.87s CPU      0.90s WALL (      19 calls)

     Called by c_bands:
     init_us_2    :     11.53s CPU     11.60s WALL (    2583 calls)
     cegterg      :    704.76s CPU    707.57s WALL (    1197 calls)

     Called by *egterg:
     cdiaghg      :     26.90s CPU     27.00s WALL (    8007 calls)
     h_psi        :    539.12s CPU    541.78s WALL (    8133 calls)
     s_psi        :     44.60s CPU     44.66s WALL (    8133 calls)
     g_psi        :      2.02s CPU      2.03s WALL (    6873 calls)

     Called by h_psi:
     h_psi:calbec :     38.62s CPU     38.69s WALL (    8133 calls)
     vloc_psi     :    452.91s CPU    455.34s WALL (    8133 calls)
     add_vuspsi   :     44.38s CPU     44.44s WALL (    8133 calls)

     General routines
     calbec       :     51.32s CPU     51.41s WALL (    9645 calls)
     fft          :      3.58s CPU      3.71s WALL (     271 calls)
     ffts         :      0.09s CPU      0.09s WALL (      38 calls)
     fftw         :    418.01s CPU    420.19s WALL (  434782 calls)
     interpolate  :      0.33s CPU      0.33s WALL (      19 calls)
 
     Parallel routines
 
     PWSCF        :  16m54.73s CPU  17m 7.26s WALL

 
   This run was terminated on:  15:32:57  19Nov2021            

=------------------------------------------------------------------------------=
   JOB DONE.
=------------------------------------------------------------------------------=
