
     Program PWSCF v.6.8 starts on 19Nov2021 at 15:16: 4 

     This program is part of the open-source Quantum ESPRESSO suite
     for quantum simulation of materials; please cite
         "P. Giannozzi et al., J. Phys.:Condens. Matter 21 395502 (2009);
         "P. Giannozzi et al., J. Phys.:Condens. Matter 29 465901 (2017);
         "P. Giannozzi et al., J. Chem. Phys. 152 154105 (2020);
          URL http://www.quantum-espresso.org", 
     in publications or presentations arising from this work. More details at
     http://www.quantum-espresso.org/quote

     Parallel version (MPI), running on    10 processors

     MPI processes distributed on     1 nodes
     R & G space division:  proc/nbgrp/npool/nimage =      10
     72984 MiB available memory on the printing compute node when the environment starts
 
     Waiting for input...
     Reading input from standard input

     Current dimensions of program PWSCF are:
     Max number of different atomic species (ntypx) = 10
     Max number of k-points (npk) =  40000
     Max angular momentum in pseudopotentials (lmaxx) =  4
     file Zr.pbe-spn-kjpaw_psl.1.0.0.UPF: wavefunction(s)  4S 4P renormalized
     file Te.pbe-n-kjpaw_psl.1.0.0.UPF: wavefunction(s)  5S 5P renormalized
     Message from routine setup:
     using ibrav=0 with symmetry is DISCOURAGED, use correct ibrav instead

     Subspace diagonalization in iterative solution of the eigenvalue problem:
     a serial algorithm will be used

 
     Parallelization info
     --------------------
     sticks:   dense  smooth     PW     G-vecs:    dense   smooth      PW
     Min         734     293     87               115340    29174    4753
     Max         735     295     88               115345    29176    4760
     Sum        7345    2937    873              1153415   291749   47557
 
     Using Slab Decomposition
 


     bravais-lattice index     =            0
     lattice parameter (alat)  =      15.5510  a.u.
     unit-cell volume          =    3018.5011 (a.u.)^3
     number of atoms/cell      =           12
     number of atomic types    =            2
     number of electrons       =        84.00
     number of Kohn-Sham states=           50
     kinetic-energy cutoff     =      80.0000  Ry
     charge density cutoff     =     800.0000  Ry
     scf convergence threshold =      1.0E-10
     mixing beta               =       0.7000
     number of iterations used =            8  plain     mixing
     Exchange-correlation= SLA  PW   PBX  PBC
                           (   1   4   3   4   0   0   0)

     celldm(1)=  15.551040  celldm(2)=   0.000000  celldm(3)=   0.000000
     celldm(4)=   0.000000  celldm(5)=   0.000000  celldm(6)=   0.000000

     crystal axes: (cart. coord. in units of alat)
               a(1) = (   0.246007  -0.969268   0.000000 )  
               a(2) = (   0.246007   0.969268   0.000000 )  
               a(3) = (   0.000000   0.000000   1.683031 )  

     reciprocal axes: (cart. coord. in units 2 pi/alat)
               b(1) = (  2.032465 -0.515853  0.000000 )  
               b(2) = (  2.032465  0.515853  0.000000 )  
               b(3) = (  0.000000  0.000000  0.594166 )  


     PseudoPot. # 1 for Zr read from file:
     pseudo/Zr.pbe-spn-kjpaw_psl.1.0.0.UPF
     MD5 check sum: 02112c41713a0468aff2bb39ef194e36
     Pseudo is Projector augmented-wave + core cor, Zval = 12.0
     Generated using &quot;atomic&quot; code by A. Dal Corso  v.6.2.2
     Shape of augmentation charge: PSQ
     Using radial grid of 1225 points,  6 beta functions with: 
                l(1) =   0
                l(2) =   0
                l(3) =   1
                l(4) =   1
                l(5) =   2
                l(6) =   2
     Q(r) pseudized with 0 coefficients 


     PseudoPot. # 2 for Te read from file:
     pseudo/Te.pbe-n-kjpaw_psl.1.0.0.UPF
     MD5 check sum: 66247bff2bd9dbf220fbb0bf5ab56e9d
     Pseudo is Projector augmented-wave + core cor, Zval =  6.0
     Generated using &quot;atomic&quot; code by A. Dal Corso  v.6.3
     Shape of augmentation charge: PSQ
     Using radial grid of 1245 points,  6 beta functions with: 
                l(1) =   0
                l(2) =   0
                l(3) =   1
                l(4) =   1
                l(5) =   2
                l(6) =   2
     Q(r) pseudized with 0 coefficients 


     atomic species   valence    mass     pseudopotential
        Zr            12.00    91.22000     Zr( 1.00)
        Te             6.00   127.60000     Te( 1.00)

      8 Sym. Ops., with inversion, found ( 4 have fractional translation)



   Cartesian axes

     site n.     atom                  positions (alat units)
         1           Zr  tau(   1) = (   0.0000000   0.5987035   0.4207578  )
         2           Zr  tau(   2) = (   0.2460067   0.3705646   1.2622733  )
         3           Te  tau(   3) = (   0.2460067   0.3341096   0.4207578  )
         4           Te  tau(   4) = (   0.0000000   0.6351585   1.2622733  )
         5           Te  tau(   5) = (   0.2460067   0.8129684   0.2542085  )
         6           Te  tau(   6) = (   0.0000000   0.1562997   1.4288225  )
         7           Te  tau(   7) = (   0.2460067   0.8129684   0.5873070  )
         8           Te  tau(   8) = (   0.0000000   0.1562997   1.0957241  )
         9           Te  tau(   9) = (   0.0000000   0.4269864   0.7424215  )
        10           Te  tau(  10) = (   0.2460067   0.5422817   0.9406096  )
        11           Te  tau(  11) = (   0.0000000   0.4269864   0.0990940  )
        12           Te  tau(  12) = (   0.2460067   0.5422817   1.5839370  )

     number of k points=    63  Methfessel-Paxton smearing, width (Ry)=  0.0030
                       cart. coord. in units 2pi/alat
        k(    1) = (   0.0000000   0.0000000   0.0000000), wk =   0.0078125
        k(    2) = (   0.0000000   0.0000000   0.1485415), wk =   0.0156250
        k(    3) = (   0.0000000   0.0000000  -0.2970830), wk =   0.0078125
        k(    4) = (   0.2540581   0.0644816   0.0000000), wk =   0.0312500
        k(    5) = (   0.2540581   0.0644816   0.1485415), wk =   0.0625000
        k(    6) = (   0.2540581   0.0644816  -0.2970830), wk =   0.0312500
        k(    7) = (   0.5081162   0.1289633   0.0000000), wk =   0.0312500
        k(    8) = (   0.5081162   0.1289633   0.1485415), wk =   0.0625000
        k(    9) = (   0.5081162   0.1289633  -0.2970830), wk =   0.0312500
        k(   10) = (   0.7621743   0.1934449   0.0000000), wk =   0.0312500
        k(   11) = (   0.7621743   0.1934449   0.1485415), wk =   0.0625000
        k(   12) = (   0.7621743   0.1934449  -0.2970830), wk =   0.0312500
        k(   13) = (  -1.0162324  -0.2579266   0.0000000), wk =   0.0156250
        k(   14) = (  -1.0162324  -0.2579266   0.1485415), wk =   0.0312500
        k(   15) = (  -1.0162324  -0.2579266  -0.2970830), wk =   0.0156250
        k(   16) = (   0.5081162   0.0000000   0.0000000), wk =   0.0156250
        k(   17) = (   0.5081162   0.0000000   0.1485415), wk =   0.0312500
        k(   18) = (   0.5081162   0.0000000  -0.2970830), wk =   0.0156250
        k(   19) = (   0.7621743   0.0644816   0.0000000), wk =   0.0312500
        k(   20) = (   0.7621743   0.0644816   0.1485415), wk =   0.0625000
        k(   21) = (   0.7621743   0.0644816  -0.2970830), wk =   0.0312500
        k(   22) = (   1.0162324   0.1289633   0.0000000), wk =   0.0312500
        k(   23) = (   1.0162324   0.1289633   0.1485415), wk =   0.0625000
        k(   24) = (   1.0162324   0.1289633  -0.2970830), wk =   0.0312500
        k(   25) = (  -0.7621743  -0.3224082   0.0000000), wk =   0.0312500
        k(   26) = (  -0.7621743  -0.3224082   0.1485415), wk =   0.0625000
        k(   27) = (  -0.7621743  -0.3224082  -0.2970830), wk =   0.0312500
        k(   28) = (  -0.5081162  -0.2579266   0.0000000), wk =   0.0312500
        k(   29) = (  -0.5081162  -0.2579266   0.1485415), wk =   0.0625000
        k(   30) = (  -0.5081162  -0.2579266  -0.2970830), wk =   0.0312500
        k(   31) = (  -0.2540581  -0.1934449   0.0000000), wk =   0.0312500
        k(   32) = (  -0.2540581  -0.1934449   0.1485415), wk =   0.0625000
        k(   33) = (  -0.2540581  -0.1934449  -0.2970830), wk =   0.0312500
        k(   34) = (   0.0000000  -0.1289633   0.0000000), wk =   0.0156250
        k(   35) = (   0.0000000  -0.1289633   0.1485415), wk =   0.0312500
        k(   36) = (   0.0000000  -0.1289633  -0.2970830), wk =   0.0156250
        k(   37) = (   1.0162324   0.0000000   0.0000000), wk =   0.0156250
        k(   38) = (   1.0162324   0.0000000   0.1485415), wk =   0.0312500
        k(   39) = (   1.0162324   0.0000000  -0.2970830), wk =   0.0156250
        k(   40) = (   1.2702905   0.0644816   0.0000000), wk =   0.0312500
        k(   41) = (   1.2702905   0.0644816   0.1485415), wk =   0.0625000
        k(   42) = (   1.2702905   0.0644816  -0.2970830), wk =   0.0312500
        k(   43) = (  -0.5081162  -0.3868899   0.0000000), wk =   0.0312500
        k(   44) = (  -0.5081162  -0.3868899   0.1485415), wk =   0.0625000
        k(   45) = (  -0.5081162  -0.3868899  -0.2970830), wk =   0.0312500
        k(   46) = (  -0.2540581  -0.3224082   0.0000000), wk =   0.0312500
        k(   47) = (  -0.2540581  -0.3224082   0.1485415), wk =   0.0625000
        k(   48) = (  -0.2540581  -0.3224082  -0.2970830), wk =   0.0312500
        k(   49) = (   0.0000000  -0.2579266   0.0000000), wk =   0.0156250
        k(   50) = (   0.0000000  -0.2579266   0.1485415), wk =   0.0312500
        k(   51) = (   0.0000000  -0.2579266  -0.2970830), wk =   0.0156250
        k(   52) = (   1.5243485   0.0000000   0.0000000), wk =   0.0156250
        k(   53) = (   1.5243485   0.0000000   0.1485415), wk =   0.0312500
        k(   54) = (   1.5243485   0.0000000  -0.2970830), wk =   0.0156250
        k(   55) = (  -0.2540581  -0.4513715   0.0000000), wk =   0.0312500
        k(   56) = (  -0.2540581  -0.4513715   0.1485415), wk =   0.0625000
        k(   57) = (  -0.2540581  -0.4513715  -0.2970830), wk =   0.0312500
        k(   58) = (   0.0000000  -0.3868899   0.0000000), wk =   0.0156250
        k(   59) = (   0.0000000  -0.3868899   0.1485415), wk =   0.0312500
        k(   60) = (   0.0000000  -0.3868899  -0.2970830), wk =   0.0156250
        k(   61) = (  -2.0324647   0.0000000   0.0000000), wk =   0.0078125
        k(   62) = (  -2.0324647   0.0000000   0.1485415), wk =   0.0156250
        k(   63) = (  -2.0324647   0.0000000  -0.2970830), wk =   0.0078125

     Dense  grid:  1153415 G-vectors     FFT dimensions: ( 144, 144, 240)

     Smooth grid:   291749 G-vectors     FFT dimensions: (  90,  90, 150)

     Estimated max dynamical RAM per process >     657.19 MB

     Estimated total dynamical RAM >       6.42 GB

     Initial potential from superposition of free atoms

     starting charge   83.99353, renormalised to   84.00000
     Starting wfcs are   66 randomized atomic wfcs
     Checking if some PAW data can be deallocated... 

     total cpu time spent up to now is       20.0 secs

     Self-consistent Calculation

     iteration #  1     ecut=    80.00 Ry     beta= 0.70
     Davidson diagonalization with overlap
     ethr =  1.00E-02,  avg # of iterations =  2.2

     Threshold (ethr) on eigenvalues was too large:
     Diagonalizing with lowered threshold

     Davidson diagonalization with overlap
     ethr =  4.83E-04,  avg # of iterations =  3.9

     total cpu time spent up to now is      103.9 secs

     total energy              =   -4240.68362053 Ry
     estimated scf accuracy    <       0.45862670 Ry

     iteration #  2     ecut=    80.00 Ry     beta= 0.70
     Davidson diagonalization with overlap
     ethr =  5.46E-04,  avg # of iterations =  8.4

     total cpu time spent up to now is      167.1 secs

     total energy              =   -4240.57431288 Ry
     estimated scf accuracy    <       2.07245797 Ry

     iteration #  3     ecut=    80.00 Ry     beta= 0.70
     Davidson diagonalization with overlap
     ethr =  5.46E-04,  avg # of iterations =  5.4

     total cpu time spent up to now is      218.6 secs

     total energy              =   -4240.90625652 Ry
     estimated scf accuracy    <       0.00794302 Ry

     iteration #  4     ecut=    80.00 Ry     beta= 0.70
     Davidson diagonalization with overlap
     c_bands:  1 eigenvalues not converged
     c_bands:  1 eigenvalues not converged
     c_bands:  2 eigenvalues not converged
     c_bands:  1 eigenvalues not converged
     c_bands:  2 eigenvalues not converged
     c_bands:  2 eigenvalues not converged
     c_bands:  1 eigenvalues not converged
     c_bands:  4 eigenvalues not converged
     c_bands:  2 eigenvalues not converged
     c_bands:  1 eigenvalues not converged
     c_bands:  1 eigenvalues not converged
     c_bands:  2 eigenvalues not converged
     c_bands:  1 eigenvalues not converged
     c_bands:  1 eigenvalues not converged
     c_bands:  1 eigenvalues not converged
     c_bands:  1 eigenvalues not converged
     c_bands:  1 eigenvalues not converged
     c_bands:  1 eigenvalues not converged
     c_bands:  1 eigenvalues not converged
     ethr =  9.46E-06,  avg # of iterations = 17.4

     total cpu time spent up to now is      316.6 secs

     total energy              =   -4240.91518705 Ry
     estimated scf accuracy    <       0.03706808 Ry

     iteration #  5     ecut=    80.00 Ry     beta= 0.70
     Davidson diagonalization with overlap
     ethr =  9.46E-06,  avg # of iterations =  6.7

     total cpu time spent up to now is      368.0 secs

     total energy              =   -4240.91709624 Ry
     estimated scf accuracy    <       0.00608571 Ry

     iteration #  6     ecut=    80.00 Ry     beta= 0.70
     Davidson diagonalization with overlap
     ethr =  7.24E-06,  avg # of iterations =  3.8

     total cpu time spent up to now is      410.3 secs

     total energy              =   -4240.91758967 Ry
     estimated scf accuracy    <       0.00102008 Ry

     iteration #  7     ecut=    80.00 Ry     beta= 0.70
     Davidson diagonalization with overlap
     ethr =  1.21E-06,  avg # of iterations =  8.6

     total cpu time spent up to now is      470.8 secs

     total energy              =   -4240.91802824 Ry
     estimated scf accuracy    <       0.00068441 Ry

     iteration #  8     ecut=    80.00 Ry     beta= 0.70
     Davidson diagonalization with overlap
     ethr =  8.15E-07,  avg # of iterations =  2.1

     total cpu time spent up to now is      508.2 secs

     total energy              =   -4240.91805093 Ry
     estimated scf accuracy    <       0.00010344 Ry

     iteration #  9     ecut=    80.00 Ry     beta= 0.70
     Davidson diagonalization with overlap
     ethr =  1.23E-07,  avg # of iterations =  6.3

     total cpu time spent up to now is      557.9 secs

     total energy              =   -4240.91808346 Ry
     estimated scf accuracy    <       0.00000890 Ry

     iteration # 10     ecut=    80.00 Ry     beta= 0.70
     Davidson diagonalization with overlap
     ethr =  1.06E-08,  avg # of iterations =  5.2

     total cpu time spent up to now is      603.3 secs

     total energy              =   -4240.91808603 Ry
     estimated scf accuracy    <       0.00000050 Ry

     iteration # 11     ecut=    80.00 Ry     beta= 0.70
     Davidson diagonalization with overlap
     ethr =  6.01E-10,  avg # of iterations =  7.5

     total cpu time spent up to now is      661.6 secs

     total energy              =   -4240.91808646 Ry
     estimated scf accuracy    <       0.00000013 Ry

     iteration # 12     ecut=    80.00 Ry     beta= 0.70
     Davidson diagonalization with overlap
     ethr =  1.58E-10,  avg # of iterations =  3.7

     total cpu time spent up to now is      703.1 secs

     total energy              =   -4240.91808649 Ry
     estimated scf accuracy    <          5.9E-09 Ry

     iteration # 13     ecut=    80.00 Ry     beta= 0.70
     Davidson diagonalization with overlap
     ethr =  7.04E-12,  avg # of iterations =  8.9

     total cpu time spent up to now is      772.1 secs

     total energy              =   -4240.91808649 Ry
     estimated scf accuracy    <       0.00000001 Ry

     iteration # 14     ecut=    80.00 Ry     beta= 0.70
     Davidson diagonalization with overlap
     ethr =  7.04E-12,  avg # of iterations =  3.3

     total cpu time spent up to now is      812.9 secs

     total energy              =   -4240.91808649 Ry
     estimated scf accuracy    <          9.0E-10 Ry

     iteration # 15     ecut=    80.00 Ry     beta= 0.70
     Davidson diagonalization with overlap
     ethr =  1.07E-12,  avg # of iterations =  6.8

     total cpu time spent up to now is      868.8 secs

     total energy              =   -4240.91808649 Ry
     estimated scf accuracy    <          6.0E-10 Ry

     iteration # 16     ecut=    80.00 Ry     beta= 0.70
     Davidson diagonalization with overlap
     ethr =  7.20E-13,  avg # of iterations =  1.3

     total cpu time spent up to now is      904.8 secs

     total energy              =   -4240.91808649 Ry
     estimated scf accuracy    <          2.2E-10 Ry

     iteration # 17     ecut=    80.00 Ry     beta= 0.70
     Davidson diagonalization with overlap
     ethr =  2.56E-13,  avg # of iterations =  4.9

     total cpu time spent up to now is      947.9 secs

     End of self-consistent calculation

          k = 0.0000 0.0000 0.0000 ( 36359 PWs)   bands (ev):

   -44.1580 -44.1579 -22.2671 -22.2670 -22.1787 -22.1787 -22.0969 -22.0967
    -8.4315  -8.2758  -7.1361  -6.9936  -6.0066  -5.3910  -4.7678  -4.7191
    -4.6023  -3.7322   0.1671   0.8302   0.8548   1.1757   1.2019   1.5262
     1.5871   1.6624   2.2569   2.8333   2.9173   2.9526   3.1812   3.4286
     3.9171   3.9980   4.1231   4.1363   4.3385   4.4048   4.5282   4.6522
     4.7680   5.1599   5.6155   5.8206   5.8418   5.9498   6.1638   6.6336
     7.1620   7.2759

          k = 0.0000 0.0000 0.1485 ( 36415 PWs)   bands (ev):

   -44.1580 -44.1580 -22.2671 -22.2670 -22.1787 -22.1787 -22.0969 -22.0968
    -8.4116  -8.3021  -7.1097  -7.0098  -5.9482  -5.5409  -4.7571  -4.7254
    -4.4249  -3.8358   0.2473   0.8318   0.9162   0.9618   1.1341   1.5972
     1.6504   1.8372   1.9857   2.8473   2.9065   2.9707   3.3537   3.5096
     3.8449   4.0416   4.1008   4.1430   4.3175   4.3935   4.5166   4.6838
     4.7570   4.7801   5.8054   5.8400   5.8433   6.2289   6.2909   6.5130
     6.9610   7.0768

          k = 0.0000 0.0000-0.2971 ( 36410 PWs)   bands (ev):

   -44.1580 -44.1580 -22.2671 -22.2671 -22.1787 -22.1787 -22.0968 -22.0968
    -8.3600  -8.3600  -7.0547  -7.0547  -5.7795  -5.7795  -4.7407  -4.7407
    -4.1026  -4.1026   0.4814   0.4814   0.9988   0.9988   1.3612   1.3612
     1.6229   1.6229   2.5056   2.5056   2.8785   2.8785   3.6515   3.6515
     3.9267   3.9267   4.1620   4.1620   4.2718   4.2718   4.4909   4.4909
     4.7270   4.7270   5.8270   5.8270   6.1871   6.1871   6.6019   6.6019
     6.6826   6.6826

          k = 0.2541 0.0645 0.0000 ( 36396 PWs)   bands (ev):

   -44.1576 -44.1576 -22.2651 -22.2651 -22.1881 -22.1881 -22.0959 -22.0957
    -8.3022  -8.1481  -7.0734  -6.9436  -5.9498  -5.3423  -4.7251  -4.6792
    -4.6652  -3.9329   0.2395   0.6947   0.9356   0.9767   1.1895   1.3521
     1.3885   1.5505   1.7512   2.6061   2.6416   3.1517   3.3463   3.6879
     3.7742   3.8118   3.9097   3.9481   4.1017   4.2916   4.3411   4.4489
     4.4957   4.6397   5.9849   5.9851   6.1355   6.3153   6.4060   6.7589
     7.0674   7.2577

          k = 0.2541 0.0645 0.1485 ( 36423 PWs)   bands (ev):

   -44.1576 -44.1576 -22.2651 -22.2651 -22.1881 -22.1881 -22.0958 -22.0957
    -8.2825  -8.1742  -7.0493  -6.9584  -5.8915  -5.4906  -4.7175  -4.6806
    -4.5066  -4.0132   0.3078   0.6455   0.8654   1.0126   1.0619   1.2165
     1.4407   1.7103   2.0199   2.6091   2.6251   2.9259   3.4381   3.4724
     3.5158   3.8819   3.9852   4.0626   4.0829   4.2498   4.4406   4.4986
     4.6325   4.7427   5.8990   6.0052   6.1058   6.1951   6.2282   6.8477
     7.2110   7.2237

          k = 0.2541 0.0645-0.2971 ( 36436 PWs)   bands (ev):

   -44.1576 -44.1576 -22.2651 -22.2651 -22.1881 -22.1881 -22.0958 -22.0958
    -8.2315  -8.2315  -6.9992  -6.9992  -5.7247  -5.7247  -4.6991  -4.6991
    -4.2290  -4.2290   0.4855   0.4855   0.8555   0.8555   1.1209   1.1209
     1.6493   1.6493   2.4771   2.4771   2.6448   2.6448   3.3078   3.3078
     3.7066   3.7066   4.0370   4.0370   4.1983   4.1983   4.4779   4.4779
     4.8797   4.8797   5.7778   5.7778   6.1238   6.1238   6.4997   6.4997
     7.3404   7.3404

          k = 0.5081 0.1290 0.0000 ( 36499 PWs)   bands (ev):

   -44.1567 -44.1567 -22.2604 -22.2604 -22.2109 -22.2109 -22.0933 -22.0932
    -7.9220  -7.7716  -6.9232  -6.8210  -5.7939  -5.2195  -4.9752  -4.6049
    -4.5579  -4.5118  -0.1547   0.3292   0.7346   0.8290   1.1624   1.3181
     1.6369   1.6900   1.7227   2.0706   2.1374   2.4662   2.6259   3.4402
     3.4475   3.5565   3.5911   3.7394   3.7594   3.8561   4.0277   4.2597
     4.2914   4.7972   5.9662   6.2149   6.3315   6.6141   6.6659   7.1014
     7.4047   7.5405

          k = 0.5081 0.1290 0.1485 ( 36476 PWs)   bands (ev):

   -44.1567 -44.1567 -22.2604 -22.2604 -22.2109 -22.2109 -22.0933 -22.0932
    -7.9029  -7.7972  -6.9042  -6.8327  -5.7391  -5.3738  -4.8489  -4.6049
    -4.5838  -4.5118  -0.0947   0.2714   0.7694   0.8121   1.1417   1.2276
     1.4051   1.5920   1.9996   2.0882   2.2797   2.5357   2.8980   3.3241
     3.4587   3.4967   3.5544   3.7226   3.7815   3.8089   3.9081   4.2709
     4.3121   4.4575   6.2857   6.3485   6.4638   6.6133   6.7369   6.9785
     7.2671   7.5265

          k = 0.5081 0.1290-0.2971 ( 36466 PWs)   bands (ev):

   -44.1567 -44.1567 -22.2604 -22.2604 -22.2109 -22.2109 -22.0932 -22.0932
    -7.8533  -7.8533  -6.8649  -6.8649  -5.5862  -5.5862  -4.7028  -4.7028
    -4.5418  -4.5418   0.0754   0.0754   0.9120   0.9120   0.9840   0.9840
     1.4795   1.4795   2.0558   2.0558   2.6318   2.6318   3.1875   3.1875
     3.3821   3.3821   3.5975   3.5975   3.7784   3.7784   3.9560   3.9560
     4.3570   4.3570   6.5137   6.5137   6.5748   6.5748   6.8983   6.8983
     7.2968   7.2968

          k = 0.7622 0.1934 0.0000 ( 36521 PWs)   bands (ev):

   -44.1559 -44.1559 -22.2557 -22.2557 -22.2335 -22.2335 -22.0907 -22.0907
    -7.3246  -7.1705  -6.7811  -6.6848  -5.7479  -5.5980  -5.1574  -5.1088
    -4.4762  -4.4373  -0.3274   0.0282   0.0746   0.8805   0.8999   1.3122
     1.4921   1.5935   2.0213   2.1240   2.2249   2.3033   2.4741   2.8195
     3.0269   3.2062   3.3533   3.4264   3.5345   3.6620   3.7095   3.7643
     3.9061   4.5983   6.2949   6.5061   6.6370   6.9763   6.9973   7.0487
     7.4085   7.6211

          k = 0.7622 0.1934 0.1485 ( 36503 PWs)   bands (ev):

   -44.1559 -44.1559 -22.2557 -22.2557 -22.2335 -22.2335 -22.0907 -22.0907
    -7.3061  -7.1987  -6.7623  -6.6957  -5.7224  -5.6157  -5.1548  -5.1216
    -4.4692  -4.4419  -0.2890  -0.0091   0.1435   0.7472   0.9332   1.2546
     1.5000   1.5898   1.9871   2.0201   2.1912   2.5506   2.7166   2.9079
     2.9737   3.0139   3.2731   3.3278   3.5056   3.5942   3.7932   3.9297
     3.9989   4.4641   6.1380   6.4809   6.7870   6.9424   7.0562   7.1382
     7.2272   7.6735

          k = 0.7622 0.1934-0.2971 ( 36522 PWs)   bands (ev):

   -44.1559 -44.1559 -22.2557 -22.2557 -22.2335 -22.2335 -22.0907 -22.0907
    -7.2568  -7.2568  -6.7254  -6.7254  -5.6652  -5.6652  -5.1433  -5.1433
    -4.4544  -4.4544  -0.1690  -0.1690   0.4286   0.4286   1.0736   1.0736
     1.5523   1.5523   1.9789   1.9789   2.4658   2.4658   2.8563   2.8563
     2.9452   2.9452   3.2525   3.2525   3.5894   3.5894   3.9688   3.9688
     4.0987   4.0987   6.4711   6.4711   6.5659   6.5659   7.0909   7.0909
     7.6066   7.6066

          k =-1.0162-0.2579 0.0000 ( 36506 PWs)   bands (ev):

   -44.1555 -44.1555 -22.2537 -22.2537 -22.2429 -22.2429 -22.0896 -22.0896
    -6.7912  -6.7694  -6.4047  -6.4013  -6.4002  -6.3878  -5.1377  -5.1373
    -4.4175  -4.3863  -0.1936  -0.1762   0.1093   0.1304   1.0131   1.0198
     1.4666   1.6546   2.1956   2.3519   2.3831   2.4113   2.7766   2.8474
     2.8653   2.9160   3.1699   3.2134   3.2804   3.3363   3.4279   3.5901
     4.0338   4.2785   6.7195   6.7846   6.9028   6.9157   7.1445   7.2434
     7.2435   7.3203

          k =-1.0162-0.2579 0.1485 ( 36506 PWs)   bands (ev):

   -44.1555 -44.1555 -22.2537 -22.2537 -22.2429 -22.2429 -22.0896 -22.0896
    -6.7850  -6.7691  -6.4476  -6.4407  -6.3583  -6.3535  -5.1364  -5.1361
    -4.4148  -4.3928  -0.2817  -0.2763   0.2821   0.2906   1.0095   1.0168
     1.4576   1.5868   2.0948   2.2430   2.3205   2.3877   2.6214   2.6536
     2.9195   3.0062   3.1293   3.2262   3.4760   3.5345   3.5808   3.6725
     4.1438   4.2912   6.3815   6.4040   6.6200   6.6977   7.2572   7.2619
     7.4880   7.5582

          k =-1.0162-0.2579-0.2971 ( 36528 PWs)   bands (ev):

   -44.1555 -44.1555 -22.2537 -22.2537 -22.2429 -22.2429 -22.0896 -22.0896
    -6.7736  -6.7736  -6.4641  -6.4641  -6.3391  -6.3391  -5.1350  -5.1350
    -4.4057  -4.4057  -0.3379  -0.3379   0.4384   0.4384   0.9882   0.9882
     1.4973   1.4973   2.0001   2.0001   2.3321   2.3321   2.7473   2.7473
     2.7851   2.7851   3.2188   3.2188   3.6156   3.6156   3.7567   3.7567
     4.3235   4.3235   6.0579   6.0579   6.5582   6.5582   7.2698   7.2698
     7.6329   7.6329

          k = 0.5081 0.0000 0.0000 ( 36503 PWs)   bands (ev):

   -44.1567 -44.1567 -22.2604 -22.2604 -22.2109 -22.2109 -22.0933 -22.0932
    -7.9234  -7.7719  -6.9233  -6.8207  -5.7911  -5.2186  -4.9730  -4.5977
    -4.5663  -4.5113  -0.1506   0.3219   0.7377   0.8392   1.1589   1.2792
     1.6319   1.6774   1.7082   2.0777   2.1328   2.4556   2.6304   3.4390
     3.4559   3.5894   3.6037   3.7191   3.7726   3.9024   4.0060   4.2952
     4.2963   4.7852   5.9728   6.1901   6.3613   6.5781   6.6134   7.1411
     7.4080   7.5699

          k = 0.5081 0.0000 0.1485 ( 36453 PWs)   bands (ev):

   -44.1567 -44.1567 -22.2604 -22.2604 -22.2109 -22.2109 -22.0933 -22.0932
    -7.9042  -7.7978  -6.9040  -6.8323  -5.7366  -5.3728  -4.8461  -4.6052
    -4.5816  -4.5149  -0.0915   0.2662   0.7799   0.8094   1.1477   1.2152
     1.3667   1.5701   1.9995   2.1052   2.2617   2.5257   2.9008   3.3371
     3.4823   3.4848   3.5673   3.7516   3.7651   3.8635   3.8692   4.2986
     4.3383   4.4359   6.2714   6.3569   6.4823   6.5717   6.6989   7.0135
     7.2773   7.5469

          k = 0.5081 0.0000-0.2971 ( 36452 PWs)   bands (ev):

   -44.1567 -44.1567 -22.2604 -22.2604 -22.2109 -22.2109 -22.0932 -22.0932
    -7.8543  -7.8543  -6.8645  -6.8645  -5.5846  -5.5846  -4.6998  -4.6998
    -4.5438  -4.5438   0.0757   0.0757   0.9098   0.9098   0.9878   0.9878
     1.4467   1.4467   2.0608   2.0608   2.6203   2.6203   3.1962   3.1962
     3.3919   3.3919   3.5983   3.5983   3.8106   3.8106   3.9386   3.9386
     4.3738   4.3738   6.5244   6.5244   6.5421   6.5421   6.9157   6.9157
     7.3002   7.3002

          k = 0.7622 0.0645 0.0000 ( 36505 PWs)   bands (ev):

   -44.1559 -44.1559 -22.2557 -22.2557 -22.2335 -22.2335 -22.0907 -22.0907
    -7.3282  -7.1712  -6.7783  -6.6832  -5.7485  -5.5963  -5.1561  -5.1091
    -4.4645  -4.4496  -0.3194   0.0277   0.0811   0.8716   0.9287   1.3250
     1.4654   1.5536   1.9846   2.1102   2.2610   2.3229   2.4198   2.7952
     3.0186   3.2450   3.3580   3.4365   3.6008   3.6895   3.7130   3.7301
     3.8502   4.6157   6.2928   6.4748   6.6668   6.9712   7.0079   7.0300
     7.4119   7.6707

          k = 0.7622 0.0645 0.1485 ( 36509 PWs)   bands (ev):

   -44.1559 -44.1559 -22.2557 -22.2557 -22.2335 -22.2335 -22.0907 -22.0907
    -7.3094  -7.2000  -6.7592  -6.6936  -5.7230  -5.6147  -5.1537  -5.1215
    -4.4609  -4.4506  -0.2811  -0.0012   0.1402   0.7380   0.9591   1.2664
     1.4742   1.5849   1.9607   1.9673   2.1919   2.5477   2.7200   2.8959
     2.9733   3.0125   3.3072   3.3306   3.5479   3.5835   3.7754   3.9641
     3.9701   4.4548   6.1625   6.4564   6.8068   6.9414   7.0330   7.1706
     7.2039   7.7077

          k = 0.7622 0.0645-0.2971 ( 36472 PWs)   bands (ev):

   -44.1559 -44.1559 -22.2557 -22.2557 -22.2335 -22.2335 -22.0907 -22.0907
    -7.2593  -7.2593  -6.7225  -6.7225  -5.6652  -5.6652  -5.1426  -5.1426
    -4.4545  -4.4545  -0.1613  -0.1613   0.4226   0.4226   1.0912   1.0912
     1.5482   1.5482   1.9260   1.9260   2.4711   2.4711   2.8613   2.8613
     2.9200   2.9200   3.2975   3.2975   3.5861   3.5861   4.0032   4.0032
     4.0552   4.0552   6.5007   6.5007   6.5628   6.5628   7.0624   7.0624
     7.6341   7.6341

          k = 1.0162 0.1290 0.0000 ( 36514 PWs)   bands (ev):

   -44.1555 -44.1555 -22.2537 -22.2537 -22.2429 -22.2429 -22.0896 -22.0896
    -6.7913  -6.7694  -6.4048  -6.4012  -6.4001  -6.3879  -5.1377  -5.1373
    -4.4175  -4.3863  -0.1991  -0.1705   0.1072   0.1325   1.0041   1.0296
     1.4741   1.6438   2.1912   2.3594   2.3913   2.4020   2.7548   2.8708
     2.8864   2.9073   3.1711   3.1915   3.2856   3.3211   3.4529   3.5847
     4.0154   4.2970   6.7126   6.7960   6.8814   6.9367   7.1709   7.2430
     7.2456   7.2959

          k = 1.0162 0.1290 0.1485 ( 36524 PWs)   bands (ev):

   -44.1555 -44.1555 -22.2537 -22.2537 -22.2429 -22.2429 -22.0896 -22.0896
    -6.7850  -6.7691  -6.4476  -6.4407  -6.3582  -6.3535  -5.1364  -5.1361
    -4.4148  -4.3928  -0.2842  -0.2740   0.2832   0.2899   1.0061   1.0202
     1.4644   1.5796   2.0999   2.2275   2.3245   2.3898   2.6133   2.6690
     2.9086   3.0196   3.1307   3.2197   3.4821   3.5037   3.6141   3.6659
     4.1234   4.3108   6.3783   6.4138   6.6162   6.6996   7.2587   7.2621
     7.4970   7.5493

          k = 1.0162 0.1290-0.2971 ( 36516 PWs)   bands (ev):

   -44.1555 -44.1555 -22.2537 -22.2537 -22.2429 -22.2429 -22.0896 -22.0896
    -6.7736  -6.7736  -6.4641  -6.4641  -6.3391  -6.3391  -5.1350  -5.1350
    -4.4057  -4.4057  -0.3380  -0.3380   0.4387   0.4387   0.9879   0.9879
     1.4986   1.4986   2.0003   2.0003   2.3281   2.3281   2.7246   2.7246
     2.8148   2.8148   3.2127   3.2127   3.6171   3.6171   3.7564   3.7564
     4.3243   4.3243   6.0611   6.0611   6.5572   6.5572   7.2704   7.2704
     7.6327   7.6327

          k =-0.7622-0.3224 0.0000 ( 36511 PWs)   bands (ev):

   -44.1559 -44.1559 -22.2557 -22.2557 -22.2335 -22.2335 -22.0907 -22.0907
    -7.3194  -7.1695  -6.7855  -6.6869  -5.7470  -5.6004  -5.1591  -5.1083
    -4.4851  -4.4275  -0.3384   0.0300   0.0641   0.8670   0.8929   1.2966
     1.5023   1.6664   2.0934   2.1465   2.2091   2.2740   2.4772   2.8575
     3.0343   3.1881   3.3426   3.4166   3.5054   3.6163   3.6938   3.7016
     4.0410   4.5666   6.2977   6.5472   6.6129   6.8976   7.0356   7.1190
     7.3928   7.5533

          k =-0.7622-0.3224 0.1485 ( 36492 PWs)   bands (ev):

   -44.1559 -44.1559 -22.2557 -22.2557 -22.2335 -22.2335 -22.0907 -22.0907
    -7.3013  -7.1967  -6.7669  -6.6985  -5.7216  -5.6172  -5.1564  -5.1217
    -4.4754  -4.4350  -0.3001  -0.0196   0.1474   0.7601   0.9030   1.2381
     1.5237   1.6058   2.0237   2.0967   2.1994   2.5496   2.6867   2.9314
     2.9709   3.0400   3.2472   3.3011   3.4747   3.5767   3.7906   3.8796
     4.0679   4.4752   6.1062   6.5194   6.7526   6.9401   7.0661   7.1495
     7.2492   7.6037

          k =-0.7622-0.3224-0.2971 ( 36508 PWs)   bands (ev):

   -44.1559 -44.1559 -22.2557 -22.2557 -22.2335 -22.2335 -22.0907 -22.0907
    -7.2532  -7.2532  -6.7295  -6.7295  -5.6651  -5.6651  -5.1443  -5.1443
    -4.4542  -4.4542  -0.1797  -0.1797   0.4365   0.4365   1.0526   1.0526
     1.5595   1.5595   2.0456   2.0456   2.4676   2.4676   2.8518   2.8518
     2.9784   2.9784   3.1917   3.1917   3.5867   3.5867   3.9213   3.9213
     4.1590   4.1590   6.4363   6.4363   6.5660   6.5660   7.1356   7.1356
     7.5473   7.5474

          k =-0.5081-0.2579 0.0000 ( 36480 PWs)   bands (ev):

   -44.1567 -44.1567 -22.2604 -22.2604 -22.2109 -22.2109 -22.0933 -22.0932
    -7.9185  -7.7708  -6.9234  -6.8212  -5.8008  -5.2215  -4.9804  -4.6153
    -4.5447  -4.5130  -0.1644   0.3465   0.7286   0.8058   1.1709   1.4182
     1.6460   1.7211   1.7660   2.0573   2.1376   2.4883   2.6132   3.3704
     3.4726   3.5169   3.5822   3.6946   3.7642   3.7723   4.0885   4.1692
     4.2802   4.8231   5.9529   6.2434   6.2930   6.7059   6.7928   7.0100
     7.3925   7.4763

          k =-0.5081-0.2579 0.1485 ( 36485 PWs)   bands (ev):

   -44.1567 -44.1567 -22.2604 -22.2604 -22.2109 -22.2109 -22.0933 -22.0932
    -7.8997  -7.7959  -6.9048  -6.8334  -5.7450  -5.3762  -4.8559  -4.6042
    -4.5883  -4.5050  -0.1021   0.2836   0.7534   0.8089   1.1352   1.2530
     1.5031   1.6532   1.9874   2.0604   2.3149   2.5557   2.8899   3.2738
     3.4271   3.5081   3.5332   3.6741   3.7199   3.7811   3.9831   4.1945
     4.2744   4.4926   6.3131   6.3219   6.4340   6.7058   6.8363   6.9057
     7.2350   7.4840

          k =-0.5081-0.2579-0.2971 ( 36478 PWs)   bands (ev):

   -44.1567 -44.1567 -22.2604 -22.2604 -22.2109 -22.2109 -22.0932 -22.0932
    -7.8509  -7.8509  -6.8659  -6.8659  -5.5900  -5.5900  -4.7096  -4.7096
    -4.5370  -4.5370   0.0748   0.0748   0.9173   0.9173   0.9752   0.9752
     1.5671   1.5671   2.0374   2.0374   2.6662   2.6662   3.1471   3.1471
     3.3639   3.3639   3.5885   3.5885   3.7183   3.7183   3.9925   3.9925
     4.3197   4.3197   6.4826   6.4826   6.6524   6.6524   6.8594   6.8594
     7.2957   7.2957

          k =-0.2541-0.1934 0.0000 ( 36410 PWs)   bands (ev):

   -44.1576 -44.1576 -22.2651 -22.2651 -22.1881 -22.1881 -22.0959 -22.0957
    -8.2998  -8.1475  -7.0704  -6.9429  -5.9608  -5.3471  -4.7451  -4.6782
    -4.6491  -3.9335   0.2615   0.6878   0.9414   1.0354   1.2012   1.3758
     1.4137   1.5988   1.7668   2.5766   2.6314   3.1536   3.3978   3.6685
     3.7372   3.7656   3.9017   3.9206   3.9371   4.2120   4.2893   4.4016
     4.4410   4.6817   6.0347   6.0439   6.2234   6.3033   6.4318   6.8129
     7.0308   7.1864

          k =-0.2541-0.1934 0.1485 ( 36427 PWs)   bands (ev):

   -44.1576 -44.1576 -22.2651 -22.2651 -22.1881 -22.1881 -22.0958 -22.0957
    -8.2803  -8.1733  -7.0469  -6.9577  -5.9013  -5.4958  -4.7319  -4.6723
    -4.5041  -4.0133   0.3302   0.6445   0.8680   1.0709   1.0899   1.2477
     1.4540   1.7215   2.0558   2.5771   2.6203   2.9306   3.4467   3.4885
     3.5480   3.8129   3.8793   3.9129   4.0453   4.2142   4.4046   4.4391
     4.5999   4.7832   5.9104   6.0025   6.1338   6.2703   6.3036   6.8425
     7.1763   7.2144

          k =-0.2541-0.1934-0.2971 ( 36422 PWs)   bands (ev):

   -44.1576 -44.1576 -22.2651 -22.2651 -22.1881 -22.1881 -22.0958 -22.0958
    -8.2299  -8.2299  -6.9980  -6.9980  -5.7319  -5.7319  -4.7019  -4.7019
    -4.2280  -4.2280   0.5028   0.5028   0.8645   0.8645   1.1686   1.1686
     1.6600   1.6600   2.4828   2.4828   2.6445   2.6445   3.3092   3.3092
     3.7358   3.7358   3.8605   3.8605   4.1735   4.1735   4.4239   4.4239
     4.8966   4.8966   5.7600   5.7600   6.1878   6.1878   6.5192   6.5192
     7.3302   7.3302

          k = 0.0000-0.1290 0.0000 ( 36417 PWs)   bands (ev):

   -44.1580 -44.1580 -22.2671 -22.2670 -22.1787 -22.1787 -22.0969 -22.0967
    -8.4302  -8.2755  -7.1338  -6.9930  -6.0137  -5.3943  -4.7768  -4.7129
    -4.6013  -3.7324   0.1810   0.8325   0.8954   1.1874   1.2136   1.5600
     1.5868   1.6620   2.2533   2.8402   2.9214   2.9526   3.1813   3.4674
     3.9050   3.9865   3.9983   4.0134   4.2859   4.4051   4.4832   4.6384
     4.7665   5.1434   5.6330   5.8656   5.8968   5.9760   6.1720   6.6531
     7.1621   7.2181

          k = 0.0000-0.1290 0.1485 ( 36419 PWs)   bands (ev):

   -44.1580 -44.1580 -22.2671 -22.2670 -22.1787 -22.1787 -22.0969 -22.0968
    -8.4104  -8.3017  -7.1078  -7.0091  -5.9546  -5.5445  -4.7653  -4.7198
    -4.4245  -3.8359   0.2620   0.8603   0.9359   0.9676   1.1558   1.5969
     1.6501   1.8429   2.0021   2.8538   2.9110   2.9759   3.3397   3.5502
     3.8543   3.9692   4.0160   4.0306   4.3124   4.3384   4.4760   4.6760
     4.7553   4.7734   5.8360   5.8680   5.8906   6.2362   6.2976   6.5310
     6.9624   7.0339

          k = 0.0000-0.1290-0.2971 ( 36464 PWs)   bands (ev):

   -44.1580 -44.1580 -22.2671 -22.2671 -22.1787 -22.1787 -22.0968 -22.0968
    -8.3592  -8.3592  -7.0536  -7.0536  -5.7844  -5.7844  -4.7420  -4.7420
    -4.1024  -4.1024   0.4985   0.4985   1.0250   1.0250   1.3652   1.3652
     1.6226   1.6226   2.5189   2.5189   2.8840   2.8840   3.6633   3.6633
     3.8714   3.8714   4.1527   4.1527   4.1834   4.1834   4.4635   4.4635
     4.7238   4.7238   5.8665   5.8665   6.2021   6.2021   6.6058   6.6058
     6.6667   6.6667

          k = 1.0162 0.0000 0.0000 ( 36499 PWs)   bands (ev):

   -44.1555 -44.1555 -22.2537 -22.2537 -22.2429 -22.2429 -22.0896 -22.0896
    -6.7913  -6.7694  -6.4048  -6.4012  -6.4000  -6.3880  -5.1377  -5.1373
    -4.4175  -4.3863  -0.2031  -0.1665   0.1054   0.1344   0.9995   1.0349
     1.4827   1.6318   2.1871   2.3748   2.3849   2.3991   2.7421   2.8855
     2.8893   2.9186   3.1380   3.2220   3.2807   3.2969   3.4788   3.5769
     3.9993   4.3132   6.7071   6.8061   6.8705   6.9473   7.2255   7.2433
     7.2436   7.2470

          k = 1.0162 0.0000 0.1485 ( 36485 PWs)   bands (ev):

   -44.1555 -44.1555 -22.2537 -22.2537 -22.2429 -22.2429 -22.0896 -22.0896
    -6.7850  -6.7691  -6.4476  -6.4408  -6.3582  -6.3536  -5.1364  -5.1361
    -4.4148  -4.3928  -0.2859  -0.2726   0.2846   0.2889   1.0039   1.0224
     1.4724   1.5714   2.1059   2.2121   2.3299   2.3892   2.6113   2.6778
     2.9018   3.0300   3.1334   3.2118   3.4840   3.4899   3.6404   3.6538
     4.1066   4.3268   6.3769   6.4219   6.6125   6.7012   7.2603   7.2621
     7.5122   7.5341

          k = 1.0162 0.0000-0.2971 ( 36514 PWs)   bands (ev):

   -44.1555 -44.1555 -22.2537 -22.2537 -22.2429 -22.2429 -22.0896 -22.0896
    -6.7736  -6.7736  -6.4641  -6.4641  -6.3391  -6.3391  -5.1350  -5.1350
    -4.4057  -4.4057  -0.3381  -0.3381   0.4390   0.4390   0.9877   0.9877
     1.4998   1.4998   2.0005   2.0005   2.3242   2.3242   2.7118   2.7118
     2.8349   2.8349   3.2064   3.2064   3.6187   3.6187   3.7562   3.7562
     4.3251   4.3251   6.0644   6.0644   6.5562   6.5562   7.2711   7.2711
     7.6324   7.6324

          k = 1.2703 0.0645 0.0000 ( 36468 PWs)   bands (ev):

   -44.1559 -44.1558 -22.2557 -22.2557 -22.2335 -22.2335 -22.0907 -22.0907
    -7.3157  -7.1688  -6.7890  -6.6881  -5.7463  -5.6021  -5.1603  -5.1081
    -4.4899  -4.4221  -0.3462   0.0335   0.0545   0.8476   0.9016   1.2868
     1.5023   1.7204   2.1513   2.1672   2.2445   2.2494   2.4095   2.8887
     3.0346   3.1909   3.3649   3.4034   3.5097   3.5665   3.6392   3.6776
     4.1417   4.5339   6.2997   6.5653   6.6177   6.8403   7.0639   7.1887
     7.3635   7.5288

          k = 1.2703 0.0645 0.1485 ( 36490 PWs)   bands (ev):

   -44.1559 -44.1559 -22.2557 -22.2557 -22.2335 -22.2335 -22.0907 -22.0907
    -7.2978  -7.1954  -6.7703  -6.7003  -5.7210  -5.6183  -5.1574  -5.1218
    -4.4788  -4.4313  -0.3078  -0.0266   0.1497   0.7691   0.8848   1.2273
     1.5318   1.6234   2.0499   2.1396   2.2290   2.5479   2.6411   2.9544
     2.9700   3.0719   3.2388   3.2657   3.4837   3.5338   3.7798   3.8424
     4.1291   4.4805   6.0858   6.5506   6.7227   6.9366   7.0529   7.2097
     7.2504   7.5465

          k = 1.2703 0.0645-0.2971 ( 36480 PWs)   bands (ev):

   -44.1559 -44.1559 -22.2557 -22.2557 -22.2335 -22.2335 -22.0907 -22.0907
    -7.2507  -7.2507  -6.7324  -6.7324  -5.6651  -5.6651  -5.1449  -5.1449
    -4.4541  -4.4541  -0.1871  -0.1871   0.4418   0.4418   1.0399   1.0399
     1.5654   1.5654   2.0858   2.0858   2.4786   2.4786   2.8512   2.8512
     2.9955   2.9955   3.1535   3.1535   3.5795   3.5795   3.8874   3.8874
     4.2023   4.2023   6.4149   6.4149   6.5646   6.5646   7.1714   7.1714
     7.4880   7.4881

          k =-0.5081-0.3869 0.0000 ( 36463 PWs)   bands (ev):

   -44.1567 -44.1567 -22.2604 -22.2604 -22.2109 -22.2109 -22.0933 -22.0932
    -7.9151  -7.7700  -6.9241  -6.8210  -5.8078  -5.2235  -4.9857  -4.6219
    -4.5352  -4.5143  -0.1739   0.3634   0.7259   0.7817   1.1795   1.5420
     1.6567   1.7531   1.7963   2.0349   2.1575   2.4864   2.5977   3.2829
     3.5072   3.5194   3.5752   3.5860   3.7251   3.7800   4.0622   4.1630
     4.2674   4.8456   5.9421   6.1713   6.3582   6.8064   6.9226   6.9311
     7.3610   7.4358

          k =-0.5081-0.3869 0.1485 ( 36477 PWs)   bands (ev):

   -44.1567 -44.1567 -22.2604 -22.2604 -22.2109 -22.2109 -22.0933 -22.0932
    -7.8966  -7.7946  -6.9058  -6.8336  -5.7509  -5.3786  -4.8627  -4.6035
    -4.5920  -4.4990  -0.1094   0.2954   0.7438   0.7989   1.1340   1.2753
     1.6265   1.7265   1.9508   2.0298   2.3709   2.5479   2.8779   3.2092
     3.3923   3.5158   3.5275   3.5950   3.7164   3.7484   4.0372   4.1367
     4.2375   4.5222   6.2584   6.3611   6.4201   6.7902   6.8204   6.9820
     7.1849   7.4604

          k =-0.5081-0.3869-0.2971 ( 36492 PWs)   bands (ev):

   -44.1567 -44.1567 -22.2604 -22.2604 -22.2109 -22.2109 -22.0932 -22.0932
    -7.8485  -7.8485  -6.8670  -6.8670  -5.5938  -5.5938  -4.7162  -4.7162
    -4.5325  -4.5325   0.0741   0.0741   0.9234   0.9234   0.9662   0.9662
     1.6765   1.6765   2.0008   2.0008   2.7178   2.7178   3.0663   3.0663
     3.3563   3.3563   3.5697   3.5697   3.6834   3.6834   4.0172   4.0172
     4.2921   4.2921   6.4525   6.4525   6.7031   6.7031   6.8380   6.8380
     7.3148   7.3148

          k =-0.2541-0.3224 0.0000 ( 36485 PWs)   bands (ev):

   -44.1576 -44.1576 -22.2651 -22.2651 -22.1881 -22.1881 -22.0959 -22.0957
    -8.2964  -8.1468  -7.0666  -6.9412  -5.9765  -5.3537  -4.7673  -4.6689
    -4.6402  -3.9344   0.2866   0.6790   0.9494   1.1194   1.2389   1.4166
     1.4490   1.6812   1.7916   2.5132   2.5879   3.1820   3.4789   3.5817
     3.6368   3.6475   3.7770   3.9344   3.9412   4.1391   4.1812   4.3245
     4.3854   4.7381   6.0866   6.1376   6.2529   6.3558   6.4689   6.8839
     6.9529   7.1052

          k =-0.2541-0.3224 0.1485 ( 36445 PWs)   bands (ev):

   -44.1576 -44.1576 -22.2651 -22.2651 -22.1881 -22.1881 -22.0958 -22.0957
    -8.2772  -8.1720  -7.0440  -6.9561  -5.9153  -5.5030  -4.7476  -4.6649
    -4.5010  -4.0135   0.3561   0.6430   0.8704   1.1029   1.1972   1.3012
     1.4815   1.7459   2.1135   2.5159   2.5795   2.9569   3.4348   3.4804
     3.6161   3.6249   3.6751   3.9120   3.9913   4.1523   4.3333   4.3792
     4.5815   4.8268   5.9199   5.9974   6.1714   6.3363   6.4115   6.8041
     7.1598   7.2003

          k =-0.2541-0.3224-0.2971 ( 36442 PWs)   bands (ev):

   -44.1576 -44.1576 -22.2651 -22.2651 -22.1881 -22.1881 -22.0958 -22.0958
    -8.2275  -8.2275  -6.9963  -6.9963  -5.7420  -5.7420  -4.7060  -4.7060
    -4.2267  -4.2267   0.5224   0.5224   0.8745   0.8745   1.2553   1.2553
     1.6817   1.6817   2.4823   2.4823   2.6389   2.6389   3.3034   3.3034
     3.6100   3.6100   3.8202   3.8202   4.1143   4.1143   4.3610   4.3610
     4.9177   4.9177   5.7426   5.7426   6.2284   6.2284   6.5569   6.5569
     7.3218   7.3218

          k = 0.0000-0.2579 0.0000 ( 36445 PWs)   bands (ev):

   -44.1580 -44.1580 -22.2671 -22.2670 -22.1787 -22.1787 -22.0969 -22.0967
    -8.4272  -8.2748  -7.1285  -6.9911  -6.0310  -5.4023  -4.7947  -4.7003
    -4.6003  -3.7331   0.2092   0.8394   1.0029   1.2401   1.2418   1.5861
     1.6320   1.6613   2.2451   2.8576   2.9311   2.9592   3.1815   3.5743
     3.6441   3.7054   3.9583   3.9824   4.1608   4.3589   4.4060   4.6053
     4.7629   5.1166   5.6754   5.9508   5.9837   6.0446   6.1920   6.6954
     7.0772   7.1621

          k = 0.0000-0.2579 0.1485 ( 36452 PWs)   bands (ev):

   -44.1580 -44.1580 -22.2671 -22.2671 -22.1787 -22.1787 -22.0969 -22.0968
    -8.4076  -8.3005  -7.1035  -7.0071  -5.9702  -5.5532  -4.7800  -4.7111
    -4.4236  -3.8361   0.2921   0.8999   0.9704   1.0438   1.2153   1.5963
     1.6493   1.8549   2.0445   2.8701   2.9219   2.9903   3.3134   3.5938
     3.6891   3.7265   3.9190   4.0035   4.2161   4.2993   4.3607   4.6582
     4.7512   4.7677   5.8931   5.9270   5.9695   6.2522   6.3140   6.5672
     6.9242   6.9657

          k = 0.0000-0.2579-0.2971 ( 36454 PWs)   bands (ev):

   -44.1580 -44.1580 -22.2671 -22.2671 -22.1787 -22.1787 -22.0968 -22.0968
    -8.3571  -8.3571  -7.0509  -7.0509  -5.7961  -5.7961  -4.7453  -4.7453
    -4.1018  -4.1018   0.5335   0.5335   1.1036   1.1036   1.3773   1.3773
     1.6219   1.6219   2.5527   2.5527   2.8977   2.8977   3.5681   3.5681
     3.7834   3.7834   4.0794   4.0794   4.1298   4.1298   4.3922   4.3922
     4.7165   4.7165   5.9282   5.9282   6.2411   6.2411   6.6154   6.6154
     6.6172   6.6172

          k = 1.5243 0.0000 0.0000 ( 36439 PWs)   bands (ev):

   -44.1567 -44.1567 -22.2604 -22.2604 -22.2109 -22.2109 -22.0933 -22.0932
    -7.9136  -7.7697  -6.9245  -6.8207  -5.8108  -5.2243  -4.9879  -4.6241
    -4.5319  -4.5148  -0.1778   0.3703   0.7268   0.7703   1.1831   1.6099
     1.6733   1.7667   1.7772   2.0239   2.1881   2.4654   2.5905   3.2538
     3.5056   3.5263   3.5400   3.5882   3.7031   3.7910   4.0107   4.1943
     4.2617   4.8540   5.9382   6.1381   6.3898   6.8518   6.8869   6.9989
     7.3312   7.4866

          k = 1.5243 0.0000 0.1485 ( 36476 PWs)   bands (ev):

   -44.1567 -44.1567 -22.2604 -22.2604 -22.2109 -22.2109 -22.0933 -22.0932
    -7.8952  -7.7941  -6.9063  -6.8336  -5.7534  -5.3795  -4.8655  -4.6033
    -4.5934  -4.4968  -0.1124   0.3002   0.7414   0.7931   1.1344   1.2839
     1.7182   1.7367   1.9287   2.0049   2.4299   2.5070   2.8696   3.1914
     3.3588   3.5211   3.5298   3.5756   3.7179   3.7330   4.0269   4.1466
     4.2171   4.5342   6.2317   6.3788   6.4176   6.7766   6.8412   7.0578
     7.1425   7.4852

          k = 1.5243 0.0000-0.2971 ( 36508 PWs)   bands (ev):

   -44.1567 -44.1567 -22.2604 -22.2604 -22.2109 -22.2109 -22.0932 -22.0932
    -7.8475  -7.8475  -6.8674  -6.8674  -5.5954  -5.5954  -4.7189  -4.7189
    -4.5307  -4.5307   0.0738   0.0738   0.9265   0.9265   0.9621   0.9621
     1.7373   1.7373   1.9714   1.9714   2.7513   2.7513   3.0136   3.0136
     3.3564   3.3564   3.5605   3.5605   3.6747   3.6747   4.0217   4.0217
     4.2858   4.2858   6.4402   6.4402   6.7075   6.7075   6.8413   6.8413
     7.3342   7.3342

          k =-0.2541-0.4514 0.0000 ( 36444 PWs)   bands (ev):

   -44.1576 -44.1576 -22.2651 -22.2651 -22.1881 -22.1881 -22.0959 -22.0957
    -8.2940  -8.1462  -7.0644  -6.9394  -5.9878  -5.3583  -4.7807  -4.6593
    -4.6393  -3.9351   0.2999   0.6736   0.9548   1.1680   1.3042   1.4339
     1.4737   1.7618   1.8238   2.4462   2.5178   3.2433   3.4333   3.4678
     3.5369   3.6339   3.8476   3.9446   3.9464   4.0319   4.1020   4.2580
     4.3709   4.7745   6.1164   6.2184   6.2371   6.4152   6.4937   6.8728
     6.9298   7.0626

          k =-0.2541-0.4514 0.1485 ( 36461 PWs)   bands (ev):

   -44.1576 -44.1576 -22.2651 -22.2651 -22.1881 -22.1881 -22.0958 -22.0957
    -8.2750  -8.1711  -7.0423  -6.9546  -5.9252  -5.5080  -4.7573  -4.6608
    -4.4991  -4.0136   0.3702   0.6419   0.8714   1.1268   1.2738   1.3570
     1.5109   1.7746   2.1739   2.4518   2.5053   2.9967   3.3688   3.4149
     3.5182   3.5751   3.7598   3.9086   3.9675   4.0360   4.2900   4.3573
     4.5712   4.8552   5.9255   5.9919   6.2062   6.3662   6.4773   6.7533
     7.1697   7.1896

          k =-0.2541-0.4514-0.2971 ( 36490 PWs)   bands (ev):

   -44.1576 -44.1576 -22.2651 -22.2651 -22.1881 -22.1881 -22.0958 -22.0958
    -8.2259  -8.2259  -6.9951  -6.9951  -5.7492  -5.7492  -4.7089  -4.7089
    -4.2257  -4.2257   0.5333   0.5333   0.8795   0.8795   1.3320   1.3320
     1.7066   1.7066   2.4629   2.4629   2.6355   2.6355   3.2786   3.2786
     3.4833   3.4833   3.8892   3.8892   4.0362   4.0362   4.3272   4.3272
     4.9314   4.9314   5.7329   5.7329   6.2356   6.2356   6.5840   6.5840
     7.3208   7.3208

          k = 0.0000-0.3869 0.0000 ( 36477 PWs)   bands (ev):

   -44.1580 -44.1580 -22.2671 -22.2671 -22.1787 -22.1787 -22.0969 -22.0967
    -8.4241  -8.2741  -7.1238  -6.9883  -6.0487  -5.4102  -4.8100  -4.6882
    -4.6014  -3.7337   0.2296   0.8482   1.1462   1.2640   1.3064   1.5855
     1.6605   1.7078   2.2382   2.8764   2.9403   2.9757   3.1639   3.3222
     3.4571   3.7285   3.9297   4.0031   4.0268   4.1935   4.4068   4.5724
     4.7595   5.0975   5.7181   6.0102   6.0380   6.1295   6.2122   6.7277
     6.9291   7.1621

          k = 0.0000-0.3869 0.1485 ( 36452 PWs)   bands (ev):

   -44.1580 -44.1580 -22.2671 -22.2671 -22.1787 -22.1787 -22.0969 -22.0968
    -8.4048  -8.2993  -7.0996  -7.0046  -5.9859  -5.5617  -4.7922  -4.7049
    -4.4228  -3.8363   0.3137   0.9292   0.9847   1.1870   1.2865   1.5956
     1.6486   1.8665   2.0938   2.8876   2.9325   3.0027   3.2355   3.3431
     3.4775   3.8098   3.9510   3.9760   4.0981   4.2033   4.2846   4.6419
     4.7473   4.7658   5.9513   5.9723   6.0157   6.2676   6.3308   6.5877
     6.8100   6.9690

          k = 0.0000-0.3869-0.2971 ( 36454 PWs)   bands (ev):

   -44.1580 -44.1580 -22.2671 -22.2671 -22.1787 -22.1787 -22.0968 -22.0968
    -8.3550  -8.3550  -7.0482  -7.0482  -5.8078  -5.8078  -4.7487  -4.7487
    -4.1012  -4.1012   0.5595   0.5595   1.2071   1.2071   1.3956   1.3956
     1.6212   1.6212   2.5916   2.5916   2.9118   2.9118   3.2976   3.2976
     3.8333   3.8333   4.0232   4.0232   4.1062   4.1062   4.3206   4.3206
     4.7098   4.7098   5.9630   5.9630   6.2846   6.2846   6.5529   6.5529
     6.6253   6.6253

          k =-2.0325 0.0000 0.0000 ( 36452 PWs)   bands (ev):

   -44.1580 -44.1580 -22.2671 -22.2671 -22.1787 -22.1787 -22.0969 -22.0967
    -8.4229  -8.2738  -7.1220  -6.9869  -6.0561  -5.4135  -4.8159  -4.6829
    -4.6025  -3.7340   0.2357   0.8524   1.2677   1.2733   1.2802   1.5852
     1.6602   1.7522   2.2359   2.8848   2.9438   2.9859   3.1094   3.2085
     3.3747   3.8866   3.9071   3.9177   4.0112   4.0935   4.4071   4.5588
     4.7582   5.0907   5.7357   6.0299   6.0545   6.1743   6.2207   6.7316
     6.8673   7.1620

          k =-2.0325 0.0000 0.1485 ( 36456 PWs)   bands (ev):

   -44.1580 -44.1580 -22.2671 -22.2671 -22.1787 -22.1787 -22.0969 -22.0968
    -8.4037  -8.2988  -7.0981  -7.0033  -5.9925  -5.5652  -4.7968  -4.7028
    -4.4226  -3.8364   0.3202   0.9418   0.9898   1.2805   1.3000   1.5953
     1.6483   1.8716   2.1204   2.8953   2.9368   2.9974   3.1324   3.2612
     3.4227   3.9167   3.9606   3.9645   4.0475   4.0910   4.2781   4.6356
     4.7458   4.7650   5.9761   5.9914   6.0275   6.2756   6.3378   6.5850
     6.7657   6.9704

          k =-2.0325 0.0000-0.2971 ( 36460 PWs)   bands (ev):

   -44.1580 -44.1580 -22.2671 -22.2671 -22.1787 -22.1787 -22.0968 -22.0968
    -8.3541  -8.3541  -7.0471  -7.0471  -5.8127  -5.8127  -4.7501  -4.7501
    -4.1009  -4.1009   0.5678   0.5678   1.2568   1.2568   1.4081   1.4081
     1.6209   1.6209   2.6110   2.6110   2.9178   2.9178   3.1698   3.1698
     3.8701   3.8701   3.9939   3.9939   4.0962   4.0962   4.2918   4.2918
     4.7072   4.7072   5.9727   5.9727   6.3054   6.3054   6.5207   6.5207
     6.6294   6.6294

     the Fermi energy is     5.4407 ev

!    total energy              =   -4240.91808649 Ry

     total all-electron energy =   -150287.611781 Ry
     estimated scf accuracy    <          2.9E-12 Ry
     smearing contrib. (-TS)   =       0.00000000 Ry
     internal energy E=F+TS    =   -4240.91808649 Ry

     The total energy is F=E-TS. E is the sum of the following terms:
     one-electron contribution =    -169.11956955 Ry
     hartree contribution      =     117.99944876 Ry
     xc contribution           =    -201.65710439 Ry
     ewald contribution        =    -220.59192147 Ry
     one-center paw contrib.   =   -3767.54893985 Ry

     convergence has been achieved in  17 iterations

     Forces acting on atoms (cartesian axes, Ry/au):

     atom    1 type  1   force =    -0.00000000    0.02324501    0.00000000
     atom    2 type  1   force =     0.00000000   -0.02324501    0.00000000
     atom    3 type  2   force =     0.00000000   -0.00032741    0.00000000
     atom    4 type  2   force =     0.00000000    0.00032741    0.00000000
     atom    5 type  2   force =     0.00000000   -0.00542070   -0.00378913
     atom    6 type  2   force =     0.00000000    0.00542070    0.00378913
     atom    7 type  2   force =    -0.00000000   -0.00542070    0.00378913
     atom    8 type  2   force =    -0.00000000    0.00542070   -0.00378913
     atom    9 type  2   force =     0.00000000   -0.04454285   -0.05313692
     atom   10 type  2   force =     0.00000000    0.04454285    0.05313692
     atom   11 type  2   force =     0.00000000   -0.04454285    0.05313692
     atom   12 type  2   force =     0.00000000    0.04454285   -0.05313692

     Total force =     0.143130     Total SCF correction =     0.000002


     Computing stress (Cartesian axis) and pressure

          total   stress  (Ry/bohr**3)                   (kbar)     P=       12.72
   0.00010633   0.00000000   0.00000000           15.64        0.00        0.00
   0.00000000   0.00004284   0.00000000            0.00        6.30        0.00
   0.00000000   0.00000000   0.00011020            0.00        0.00       16.21

 
     init_run     :     19.22s CPU     19.76s WALL (       1 calls)
     electrons    :    917.20s CPU    927.85s WALL (       1 calls)
     forces       :      6.89s CPU      7.14s WALL (       1 calls)
     stress       :     42.46s CPU     43.03s WALL (       1 calls)

     Called by init_run:
     wfcinit      :     14.66s CPU     14.87s WALL (       1 calls)
     potinit      :      1.46s CPU      1.52s WALL (       1 calls)
     hinit0       :      1.80s CPU      1.85s WALL (       1 calls)

     Called by electrons:
     c_bands      :    765.87s CPU    769.19s WALL (      18 calls)
     sum_band     :    126.28s CPU    130.18s WALL (      18 calls)
     v_of_rho     :      5.46s CPU      5.72s WALL (      18 calls)
     newd         :     13.98s CPU     17.32s WALL (      18 calls)
     PAW_pot      :      5.75s CPU      5.76s WALL (      18 calls)
     mix_rho      :      0.77s CPU      0.80s WALL (      18 calls)

     Called by c_bands:
     init_us_2    :     11.08s CPU     11.13s WALL (    2457 calls)
     cegterg      :    690.97s CPU    693.74s WALL (    1134 calls)

     Called by *egterg:
     cdiaghg      :     26.31s CPU     26.38s WALL (    7774 calls)
     h_psi        :    531.43s CPU    534.11s WALL (    7900 calls)
     s_psi        :     43.21s CPU     43.27s WALL (    7900 calls)
     g_psi        :      1.88s CPU      1.90s WALL (    6703 calls)

     Called by h_psi:
     h_psi:calbec :     37.29s CPU     37.36s WALL (    7900 calls)
     vloc_psi     :    448.18s CPU    450.64s WALL (    7900 calls)
     add_vuspsi   :     42.98s CPU     43.05s WALL (    7900 calls)

     General routines
     calbec       :     49.12s CPU     49.22s WALL (    9349 calls)
     fft          :      3.18s CPU      3.30s WALL (     258 calls)
     ffts         :      0.08s CPU      0.08s WALL (      36 calls)
     fftw         :    411.32s CPU    413.52s WALL (  411796 calls)
     interpolate  :      0.30s CPU      0.30s WALL (      18 calls)
 
     Parallel routines
 
     PWSCF        :  16m26.04s CPU  16m38.19s WALL

 
   This run was terminated on:  15:32:42  19Nov2021            

=------------------------------------------------------------------------------=
   JOB DONE.
=------------------------------------------------------------------------------=
