
     Program PWSCF v.6.8 starts on 19Nov2021 at 15:16:59 

     This program is part of the open-source Quantum ESPRESSO suite
     for quantum simulation of materials; please cite
         "P. Giannozzi et al., J. Phys.:Condens. Matter 21 395502 (2009);
         "P. Giannozzi et al., J. Phys.:Condens. Matter 29 465901 (2017);
         "P. Giannozzi et al., J. Chem. Phys. 152 154105 (2020);
          URL http://www.quantum-espresso.org", 
     in publications or presentations arising from this work. More details at
     http://www.quantum-espresso.org/quote

     Parallel version (MPI), running on    10 processors

     MPI processes distributed on     1 nodes
     R & G space division:  proc/nbgrp/npool/nimage =      10
     70792 MiB available memory on the printing compute node when the environment starts
 
     Waiting for input...
     Reading input from standard input

     Current dimensions of program PWSCF are:
     Max number of different atomic species (ntypx) = 10
     Max number of k-points (npk) =  40000
     Max angular momentum in pseudopotentials (lmaxx) =  4
     file Zr.pbe-spn-kjpaw_psl.1.0.0.UPF: wavefunction(s)  4S 4P renormalized
     file Te.pbe-n-kjpaw_psl.1.0.0.UPF: wavefunction(s)  5S 5P renormalized
     Message from routine setup:
     using ibrav=0 with symmetry is DISCOURAGED, use correct ibrav instead

     Subspace diagonalization in iterative solution of the eigenvalue problem:
     a serial algorithm will be used

 
     Parallelization info
     --------------------
     sticks:   dense  smooth     PW     G-vecs:    dense   smooth      PW
     Min         734     293     87               115340    29174    4753
     Max         735     295     88               115345    29176    4760
     Sum        7345    2937    873              1153415   291749   47557
 
     Using Slab Decomposition
 


     bravais-lattice index     =            0
     lattice parameter (alat)  =      15.5510  a.u.
     unit-cell volume          =    3018.5011 (a.u.)^3
     number of atoms/cell      =           12
     number of atomic types    =            2
     number of electrons       =        84.00
     number of Kohn-Sham states=           50
     kinetic-energy cutoff     =      80.0000  Ry
     charge density cutoff     =     800.0000  Ry
     scf convergence threshold =      1.0E-10
     mixing beta               =       0.7000
     number of iterations used =            8  plain     mixing
     Exchange-correlation= SLA  PW   PBX  PBC
                           (   1   4   3   4   0   0   0)

     celldm(1)=  15.551040  celldm(2)=   0.000000  celldm(3)=   0.000000
     celldm(4)=   0.000000  celldm(5)=   0.000000  celldm(6)=   0.000000

     crystal axes: (cart. coord. in units of alat)
               a(1) = (   0.246007  -0.969268   0.000000 )  
               a(2) = (   0.246007   0.969268   0.000000 )  
               a(3) = (   0.000000   0.000000   1.683031 )  

     reciprocal axes: (cart. coord. in units 2 pi/alat)
               b(1) = (  2.032465 -0.515853  0.000000 )  
               b(2) = (  2.032465  0.515853  0.000000 )  
               b(3) = (  0.000000  0.000000  0.594166 )  


     PseudoPot. # 1 for Zr read from file:
     pseudo/Zr.pbe-spn-kjpaw_psl.1.0.0.UPF
     MD5 check sum: 02112c41713a0468aff2bb39ef194e36
     Pseudo is Projector augmented-wave + core cor, Zval = 12.0
     Generated using &quot;atomic&quot; code by A. Dal Corso  v.6.2.2
     Shape of augmentation charge: PSQ
     Using radial grid of 1225 points,  6 beta functions with: 
                l(1) =   0
                l(2) =   0
                l(3) =   1
                l(4) =   1
                l(5) =   2
                l(6) =   2
     Q(r) pseudized with 0 coefficients 


     PseudoPot. # 2 for Te read from file:
     pseudo/Te.pbe-n-kjpaw_psl.1.0.0.UPF
     MD5 check sum: 66247bff2bd9dbf220fbb0bf5ab56e9d
     Pseudo is Projector augmented-wave + core cor, Zval =  6.0
     Generated using &quot;atomic&quot; code by A. Dal Corso  v.6.3
     Shape of augmentation charge: PSQ
     Using radial grid of 1245 points,  6 beta functions with: 
                l(1) =   0
                l(2) =   0
                l(3) =   1
                l(4) =   1
                l(5) =   2
                l(6) =   2
     Q(r) pseudized with 0 coefficients 


     atomic species   valence    mass     pseudopotential
        Zr            12.00    91.22000     Zr( 1.00)
        Te             6.00   127.60000     Te( 1.00)

      8 Sym. Ops., with inversion, found ( 4 have fractional translation)



   Cartesian axes

     site n.     atom                  positions (alat units)
         1           Zr  tau(   1) = (   0.0000000   0.5963797   0.4207578  )
         2           Zr  tau(   2) = (   0.2460067   0.3728884   1.2622733  )
         3           Te  tau(   3) = (   0.2460067   0.3340629   0.4207578  )
         4           Te  tau(   4) = (   0.0000000   0.6352052   1.2622733  )
         5           Te  tau(   5) = (   0.2460067   0.8140262   0.2549306  )
         6           Te  tau(   6) = (   0.0000000   0.1552419   1.4281005  )
         7           Te  tau(   7) = (   0.2460067   0.8140262   0.5865849  )
         8           Te  tau(   8) = (   0.0000000   0.1552419   1.0964461  )
         9           Te  tau(   9) = (   0.0000000   0.4310574   0.7463055  )
        10           Te  tau(  10) = (   0.2460067   0.5382107   0.9367255  )
        11           Te  tau(  11) = (   0.0000000   0.4310574   0.0952100  )
        12           Te  tau(  12) = (   0.2460067   0.5382107   1.5878210  )

     number of k points=    63  Methfessel-Paxton smearing, width (Ry)=  0.0030
                       cart. coord. in units 2pi/alat
        k(    1) = (   0.0000000   0.0000000   0.0000000), wk =   0.0078125
        k(    2) = (   0.0000000   0.0000000   0.1485415), wk =   0.0156250
        k(    3) = (   0.0000000   0.0000000  -0.2970830), wk =   0.0078125
        k(    4) = (   0.2540581   0.0644816   0.0000000), wk =   0.0312500
        k(    5) = (   0.2540581   0.0644816   0.1485415), wk =   0.0625000
        k(    6) = (   0.2540581   0.0644816  -0.2970830), wk =   0.0312500
        k(    7) = (   0.5081162   0.1289633   0.0000000), wk =   0.0312500
        k(    8) = (   0.5081162   0.1289633   0.1485415), wk =   0.0625000
        k(    9) = (   0.5081162   0.1289633  -0.2970830), wk =   0.0312500
        k(   10) = (   0.7621743   0.1934449   0.0000000), wk =   0.0312500
        k(   11) = (   0.7621743   0.1934449   0.1485415), wk =   0.0625000
        k(   12) = (   0.7621743   0.1934449  -0.2970830), wk =   0.0312500
        k(   13) = (  -1.0162324  -0.2579266   0.0000000), wk =   0.0156250
        k(   14) = (  -1.0162324  -0.2579266   0.1485415), wk =   0.0312500
        k(   15) = (  -1.0162324  -0.2579266  -0.2970830), wk =   0.0156250
        k(   16) = (   0.5081162   0.0000000   0.0000000), wk =   0.0156250
        k(   17) = (   0.5081162   0.0000000   0.1485415), wk =   0.0312500
        k(   18) = (   0.5081162   0.0000000  -0.2970830), wk =   0.0156250
        k(   19) = (   0.7621743   0.0644816   0.0000000), wk =   0.0312500
        k(   20) = (   0.7621743   0.0644816   0.1485415), wk =   0.0625000
        k(   21) = (   0.7621743   0.0644816  -0.2970830), wk =   0.0312500
        k(   22) = (   1.0162324   0.1289633   0.0000000), wk =   0.0312500
        k(   23) = (   1.0162324   0.1289633   0.1485415), wk =   0.0625000
        k(   24) = (   1.0162324   0.1289633  -0.2970830), wk =   0.0312500
        k(   25) = (  -0.7621743  -0.3224082   0.0000000), wk =   0.0312500
        k(   26) = (  -0.7621743  -0.3224082   0.1485415), wk =   0.0625000
        k(   27) = (  -0.7621743  -0.3224082  -0.2970830), wk =   0.0312500
        k(   28) = (  -0.5081162  -0.2579266   0.0000000), wk =   0.0312500
        k(   29) = (  -0.5081162  -0.2579266   0.1485415), wk =   0.0625000
        k(   30) = (  -0.5081162  -0.2579266  -0.2970830), wk =   0.0312500
        k(   31) = (  -0.2540581  -0.1934449   0.0000000), wk =   0.0312500
        k(   32) = (  -0.2540581  -0.1934449   0.1485415), wk =   0.0625000
        k(   33) = (  -0.2540581  -0.1934449  -0.2970830), wk =   0.0312500
        k(   34) = (   0.0000000  -0.1289633   0.0000000), wk =   0.0156250
        k(   35) = (   0.0000000  -0.1289633   0.1485415), wk =   0.0312500
        k(   36) = (   0.0000000  -0.1289633  -0.2970830), wk =   0.0156250
        k(   37) = (   1.0162324   0.0000000   0.0000000), wk =   0.0156250
        k(   38) = (   1.0162324   0.0000000   0.1485415), wk =   0.0312500
        k(   39) = (   1.0162324   0.0000000  -0.2970830), wk =   0.0156250
        k(   40) = (   1.2702905   0.0644816   0.0000000), wk =   0.0312500
        k(   41) = (   1.2702905   0.0644816   0.1485415), wk =   0.0625000
        k(   42) = (   1.2702905   0.0644816  -0.2970830), wk =   0.0312500
        k(   43) = (  -0.5081162  -0.3868899   0.0000000), wk =   0.0312500
        k(   44) = (  -0.5081162  -0.3868899   0.1485415), wk =   0.0625000
        k(   45) = (  -0.5081162  -0.3868899  -0.2970830), wk =   0.0312500
        k(   46) = (  -0.2540581  -0.3224082   0.0000000), wk =   0.0312500
        k(   47) = (  -0.2540581  -0.3224082   0.1485415), wk =   0.0625000
        k(   48) = (  -0.2540581  -0.3224082  -0.2970830), wk =   0.0312500
        k(   49) = (   0.0000000  -0.2579266   0.0000000), wk =   0.0156250
        k(   50) = (   0.0000000  -0.2579266   0.1485415), wk =   0.0312500
        k(   51) = (   0.0000000  -0.2579266  -0.2970830), wk =   0.0156250
        k(   52) = (   1.5243485   0.0000000   0.0000000), wk =   0.0156250
        k(   53) = (   1.5243485   0.0000000   0.1485415), wk =   0.0312500
        k(   54) = (   1.5243485   0.0000000  -0.2970830), wk =   0.0156250
        k(   55) = (  -0.2540581  -0.4513715   0.0000000), wk =   0.0312500
        k(   56) = (  -0.2540581  -0.4513715   0.1485415), wk =   0.0625000
        k(   57) = (  -0.2540581  -0.4513715  -0.2970830), wk =   0.0312500
        k(   58) = (   0.0000000  -0.3868899   0.0000000), wk =   0.0156250
        k(   59) = (   0.0000000  -0.3868899   0.1485415), wk =   0.0312500
        k(   60) = (   0.0000000  -0.3868899  -0.2970830), wk =   0.0156250
        k(   61) = (  -2.0324647   0.0000000   0.0000000), wk =   0.0078125
        k(   62) = (  -2.0324647   0.0000000   0.1485415), wk =   0.0156250
        k(   63) = (  -2.0324647   0.0000000  -0.2970830), wk =   0.0078125

     Dense  grid:  1153415 G-vectors     FFT dimensions: ( 144, 144, 240)

     Smooth grid:   291749 G-vectors     FFT dimensions: (  90,  90, 150)

     Estimated max dynamical RAM per process >     657.19 MB

     Estimated total dynamical RAM >       6.42 GB

     Initial potential from superposition of free atoms

     starting charge   83.99353, renormalised to   84.00000
     Starting wfcs are   66 randomized atomic wfcs
     Checking if some PAW data can be deallocated... 

     total cpu time spent up to now is       20.5 secs

     Self-consistent Calculation

     iteration #  1     ecut=    80.00 Ry     beta= 0.70
     Davidson diagonalization with overlap
     ethr =  1.00E-02,  avg # of iterations =  2.3

     Threshold (ethr) on eigenvalues was too large:
     Diagonalizing with lowered threshold

     Davidson diagonalization with overlap
     ethr =  5.05E-04,  avg # of iterations =  3.9

     total cpu time spent up to now is      103.6 secs

     total energy              =   -4240.64697715 Ry
     estimated scf accuracy    <       0.46684355 Ry

     iteration #  2     ecut=    80.00 Ry     beta= 0.70
     Davidson diagonalization with overlap
     ethr =  5.56E-04,  avg # of iterations =  8.3

     total cpu time spent up to now is      165.1 secs

     total energy              =   -4240.53015519 Ry
     estimated scf accuracy    <       2.09175900 Ry

     iteration #  3     ecut=    80.00 Ry     beta= 0.70
     Davidson diagonalization with overlap
     ethr =  5.56E-04,  avg # of iterations =  5.3

     total cpu time spent up to now is      215.7 secs

     total energy              =   -4240.87509750 Ry
     estimated scf accuracy    <       0.00814902 Ry

     iteration #  4     ecut=    80.00 Ry     beta= 0.70
     Davidson diagonalization with overlap
     c_bands:  2 eigenvalues not converged
     c_bands:  2 eigenvalues not converged
     c_bands:  2 eigenvalues not converged
     c_bands:  2 eigenvalues not converged
     c_bands:  2 eigenvalues not converged
     c_bands:  1 eigenvalues not converged
     c_bands:  2 eigenvalues not converged
     c_bands:  3 eigenvalues not converged
     c_bands:  1 eigenvalues not converged
     c_bands:  1 eigenvalues not converged
     c_bands:  2 eigenvalues not converged
     c_bands:  4 eigenvalues not converged
     c_bands:  1 eigenvalues not converged
     c_bands:  1 eigenvalues not converged
     ethr =  9.70E-06,  avg # of iterations = 15.4

     total cpu time spent up to now is      306.6 secs

     total energy              =   -4240.88376966 Ry
     estimated scf accuracy    <       0.02679605 Ry

     iteration #  5     ecut=    80.00 Ry     beta= 0.70
     Davidson diagonalization with overlap
     ethr =  9.70E-06,  avg # of iterations =  5.9

     total cpu time spent up to now is      354.6 secs

     total energy              =   -4240.88520669 Ry
     estimated scf accuracy    <       0.00483122 Ry

     iteration #  6     ecut=    80.00 Ry     beta= 0.70
     Davidson diagonalization with overlap
     ethr =  5.75E-06,  avg # of iterations =  4.8

     total cpu time spent up to now is      397.0 secs

     total energy              =   -4240.88570721 Ry
     estimated scf accuracy    <       0.00069710 Ry

     iteration #  7     ecut=    80.00 Ry     beta= 0.70
     Davidson diagonalization with overlap
     ethr =  8.30E-07,  avg # of iterations =  8.0

     total cpu time spent up to now is      456.8 secs

     total energy              =   -4240.88603591 Ry
     estimated scf accuracy    <       0.00071919 Ry

     iteration #  8     ecut=    80.00 Ry     beta= 0.70
     Davidson diagonalization with overlap
     ethr =  8.30E-07,  avg # of iterations =  2.0

     total cpu time spent up to now is      492.4 secs

     total energy              =   -4240.88605629 Ry
     estimated scf accuracy    <       0.00010556 Ry

     iteration #  9     ecut=    80.00 Ry     beta= 0.70
     Davidson diagonalization with overlap
     ethr =  1.26E-07,  avg # of iterations =  6.2

     total cpu time spent up to now is      542.7 secs

     total energy              =   -4240.88609097 Ry
     estimated scf accuracy    <       0.00001610 Ry

     iteration # 10     ecut=    80.00 Ry     beta= 0.70
     Davidson diagonalization with overlap
     ethr =  1.92E-08,  avg # of iterations =  3.4

     total cpu time spent up to now is      581.6 secs

     total energy              =   -4240.88609357 Ry
     estimated scf accuracy    <       0.00000074 Ry

     iteration # 11     ecut=    80.00 Ry     beta= 0.70
     Davidson diagonalization with overlap
     ethr =  8.84E-10,  avg # of iterations =  8.6

     total cpu time spent up to now is      647.4 secs

     total energy              =   -4240.88609452 Ry
     estimated scf accuracy    <       0.00000071 Ry

     iteration # 12     ecut=    80.00 Ry     beta= 0.70
     Davidson diagonalization with overlap
     ethr =  8.41E-10,  avg # of iterations =  2.1

     total cpu time spent up to now is      683.7 secs

     total energy              =   -4240.88609454 Ry
     estimated scf accuracy    <       0.00000010 Ry

     iteration # 13     ecut=    80.00 Ry     beta= 0.70
     Davidson diagonalization with overlap
     ethr =  1.15E-10,  avg # of iterations =  6.1

     total cpu time spent up to now is      735.4 secs

     total energy              =   -4240.88609459 Ry
     estimated scf accuracy    <       0.00000003 Ry

     iteration # 14     ecut=    80.00 Ry     beta= 0.70
     Davidson diagonalization with overlap
     ethr =  3.02E-11,  avg # of iterations =  1.6

     total cpu time spent up to now is      771.4 secs

     total energy              =   -4240.88609459 Ry
     estimated scf accuracy    <          6.6E-09 Ry

     iteration # 15     ecut=    80.00 Ry     beta= 0.70
     Davidson diagonalization with overlap
     ethr =  7.86E-12,  avg # of iterations =  6.0

     total cpu time spent up to now is      819.6 secs

     total energy              =   -4240.88609459 Ry
     estimated scf accuracy    <          9.8E-10 Ry

     iteration # 16     ecut=    80.00 Ry     beta= 0.70
     Davidson diagonalization with overlap
     ethr =  1.17E-12,  avg # of iterations =  3.5

     total cpu time spent up to now is      859.0 secs

     total energy              =   -4240.88609459 Ry
     estimated scf accuracy    <          3.0E-10 Ry

     iteration # 17     ecut=    80.00 Ry     beta= 0.70
     Davidson diagonalization with overlap
     ethr =  3.63E-13,  avg # of iterations =  6.0

     total cpu time spent up to now is      906.8 secs

     End of self-consistent calculation

          k = 0.0000 0.0000 0.0000 ( 36359 PWs)   bands (ev):

   -44.1711 -44.1711 -22.2747 -22.2747 -22.1872 -22.1872 -22.1133 -22.1131
    -8.6867  -8.5684  -7.1432  -7.0271  -5.9144  -5.3728  -4.7434  -4.6947
    -4.4737  -3.6823   0.1014   0.8792   0.8861   1.0995   1.1912   1.2675
     1.3122   1.5115   2.2674   2.8573   2.9077   2.9235   3.0964   3.4780
     3.9864   4.0540   4.1617   4.1787   4.3344   4.4567   4.6115   4.6133
     4.8041   4.9591   5.5995   5.7501   5.8145   6.0014   6.2821   6.5018
     7.2272   7.2489

          k = 0.0000 0.0000 0.1485 ( 36415 PWs)   bands (ev):

   -44.1711 -44.1711 -22.2747 -22.2747 -22.1872 -22.1872 -22.1132 -22.1131
    -8.6709  -8.5875  -7.1230  -7.0413  -5.8608  -5.4972  -4.7322  -4.7007
    -4.3220  -3.7798   0.1822   0.7716   0.9285   1.0093   1.1526   1.2738
     1.3053   1.8149   1.9782   2.8678   2.9008   2.9146   3.3068   3.5503
     3.8902   4.0932   4.1393   4.1764   4.3541   4.4181   4.5391   4.6769
     4.7069   4.7894   5.7494   5.8066   5.8097   6.2037   6.3949   6.3979
     7.0319   7.0355

          k = 0.0000 0.0000-0.2971 ( 36410 PWs)   bands (ev):

   -44.1711 -44.1711 -22.2747 -22.2747 -22.1872 -22.1872 -22.1132 -22.1132
    -8.6309  -8.6309  -7.0792  -7.0792  -5.7077  -5.7077  -4.7153  -4.7153
    -4.0291  -4.0291   0.4163   0.4163   1.0205   1.0205   1.2893   1.2893
     1.3910   1.3910   2.4504   2.4504   2.8920   2.8920   3.6924   3.6924
     3.8939   3.8939   4.2032   4.2032   4.2502   4.2502   4.5531   4.5531
     4.7465   4.7465   5.7888   5.7888   6.1175   6.1175   6.6213   6.6213
     6.6814   6.6814

          k = 0.2541 0.0645 0.0000 ( 36396 PWs)   bands (ev):

   -44.1708 -44.1708 -22.2728 -22.2728 -22.1966 -22.1966 -22.1122 -22.1121
    -8.5533  -8.4360  -7.0822  -6.9766  -5.8600  -5.3243  -4.6986  -4.6485
    -4.5697  -3.9090   0.1580   0.4283   0.9209   0.9834   1.0031   1.2650
     1.3288   1.5693   1.7538   2.6192   2.6583   3.0934   3.4016   3.6787
     3.7507   3.8288   3.9353   3.9879   4.1251   4.3284   4.3309   4.4683
     4.5710   4.6894   5.9884   6.0428   6.0699   6.1411   6.3068   6.8497
     7.0890   7.2752

          k = 0.2541 0.0645 0.1485 ( 36423 PWs)   bands (ev):

   -44.1708 -44.1708 -22.2728 -22.2728 -22.1966 -22.1966 -22.1122 -22.1121
    -8.5377  -8.4550  -7.0639  -6.9895  -5.8066  -5.4480  -4.6899  -4.6550
    -4.4314  -3.9832   0.2230   0.4205   0.7394   0.9466   1.0403   1.1959
     1.3450   1.7219   1.9659   2.6226   2.6439   2.8901   3.4529   3.4994
     3.5314   3.9107   4.0011   4.0892   4.1030   4.2834   4.4803   4.5656
     4.5858   4.7683   5.9018   5.9081   6.0991   6.1465   6.2056   6.8979
     7.1983   7.2308

          k = 0.2541 0.0645-0.2971 ( 36436 PWs)   bands (ev):

   -44.1708 -44.1708 -22.2728 -22.2728 -22.1966 -22.1966 -22.1121 -22.1121
    -8.4980  -8.4980  -7.0240  -7.0240  -5.6552  -5.6552  -4.6723  -4.6723
    -4.1816  -4.1816   0.3630   0.3630   0.6997   0.6997   1.1363   1.1363
     1.5843   1.5843   2.4516   2.4516   2.6478   2.6478   3.3367   3.3367
     3.7340   3.7340   4.0634   4.0634   4.2258   4.2258   4.5296   4.5296
     4.8424   4.8424   5.7365   5.7365   6.0984   6.0984   6.5356   6.5356
     7.3226   7.3226

          k = 0.5081 0.1290 0.0000 ( 36499 PWs)   bands (ev):

   -44.1699 -44.1699 -22.2681 -22.2681 -22.2191 -22.2191 -22.1097 -22.1096
    -8.1593  -8.0444  -6.9357  -6.8535  -5.7188  -5.1995  -4.9604  -4.5780
    -4.5512  -4.5308  -0.3626   0.1430   0.6914   0.7817   1.1764   1.3333
     1.5859   1.6421   1.7322   2.0641   2.1330   2.5282   2.6869   3.3830
     3.4658   3.5395   3.6239   3.7520   3.8052   3.8615   4.0609   4.2889
     4.3068   4.7292   6.1070   6.2697   6.3697   6.6153   6.6954   7.1571
     7.3575   7.5248

          k = 0.5081 0.1290 0.1485 ( 36476 PWs)   bands (ev):

   -44.1699 -44.1699 -22.2681 -22.2681 -22.2191 -22.2191 -22.1097 -22.1096
    -8.1440  -8.0630  -6.9215  -6.8636  -5.6689  -5.3370  -4.8477  -4.6089
    -4.5613  -4.5145  -0.3000   0.0685   0.6922   0.8424   1.1416   1.1763
     1.4149   1.6030   1.9976   2.0863   2.2392   2.5795   2.9340   3.2689
     3.4485   3.5078   3.5713   3.7419   3.8188   3.8260   3.9525   4.2895
     4.3393   4.4557   6.3326   6.4095   6.4827   6.6144   6.7892   7.0423
     7.2276   7.5206

          k = 0.5081 0.1290-0.2971 ( 36466 PWs)   bands (ev):

   -44.1699 -44.1699 -22.2681 -22.2681 -22.2191 -22.2191 -22.1097 -22.1097
    -8.1052  -8.1052  -6.8906  -6.8906  -5.5298  -5.5298  -4.7097  -4.7097
    -4.5294  -4.5294  -0.1285  -0.1285   0.8526   0.8526   0.9982   0.9982
     1.4967   1.4967   2.0588   2.0588   2.6021   2.6021   3.1842   3.1842
     3.3774   3.3774   3.6138   3.6138   3.8002   3.8002   4.0098   4.0098
     4.3835   4.3835   6.5486   6.5486   6.5774   6.5774   6.8989   6.8989
     7.3605   7.3605

          k = 0.7622 0.1934 0.0000 ( 36521 PWs)   bands (ev):

   -44.1690 -44.1690 -22.2634 -22.2634 -22.2416 -22.2416 -22.1072 -22.1072
    -7.5296  -7.4140  -6.7964  -6.7239  -5.8059  -5.7014  -5.1559  -5.0791
    -4.4475  -4.4076  -0.4435  -0.0865   0.0402   0.8495   0.8749   1.3278
     1.4958   1.5895   2.0239   2.0390   2.2220   2.3673   2.4994   2.8298
     3.0674   3.1494   3.3332   3.4115   3.5531   3.6387   3.7075   3.7820
     3.9609   4.6137   6.4513   6.5597   6.7210   7.0135   7.0248   7.0775
     7.4158   7.5952

          k = 0.7622 0.1934 0.1485 ( 36503 PWs)   bands (ev):

   -44.1690 -44.1690 -22.2634 -22.2634 -22.2416 -22.2416 -22.1072 -22.1072
    -7.5146  -7.4332  -6.7840  -6.7331  -5.7879  -5.7137  -5.1484  -5.0945
    -4.4408  -4.4128  -0.4056  -0.1546   0.1453   0.7170   0.9157   1.2610
     1.5025   1.5800   1.9531   2.0080   2.2434   2.5231   2.7317   2.9195
     2.9592   3.0324   3.2602   3.3099   3.5014   3.5843   3.8333   3.9301
     4.0248   4.4762   6.2931   6.5265   6.8316   6.9877   7.0729   7.1905
     7.2791   7.6658

          k = 0.7622 0.1934-0.2971 ( 36522 PWs)   bands (ev):

   -44.1690 -44.1690 -22.2634 -22.2634 -22.2416 -22.2416 -22.1072 -22.1072
    -7.4760  -7.4760  -6.7570  -6.7570  -5.7479  -5.7479  -5.1254  -5.1254
    -4.4260  -4.4260  -0.2947  -0.2947   0.4143   0.4143   1.0654   1.0654
     1.5493   1.5493   1.9586   1.9586   2.4914   2.4914   2.8604   2.8604
     2.9330   2.9330   3.2383   3.2383   3.5805   3.5805   3.9709   3.9709
     4.1464   4.1464   6.5686   6.5686   6.6200   6.6200   7.1127   7.1127
     7.6399   7.6399

          k =-1.0162-0.2579 0.0000 ( 36506 PWs)   bands (ev):

   -44.1687 -44.1687 -22.2614 -22.2614 -22.2508 -22.2508 -22.1062 -22.1062
    -6.8466  -6.8250  -6.5957  -6.5931  -6.5451  -6.5330  -5.0909  -5.0904
    -4.3880  -4.3553  -0.2483  -0.2325   0.0552   0.0756   1.0169   1.0225
     1.4667   1.6490   2.1752   2.3208   2.3607   2.3862   2.7550   2.8636
     2.9048   2.9663   3.1636   3.1838   3.2612   3.3196   3.4252   3.5653
     4.1135   4.3418   6.7698   6.8286   7.0218   7.0260   7.1607   7.2698
     7.2706   7.3382

          k =-1.0162-0.2579 0.1485 ( 36506 PWs)   bands (ev):

   -44.1687 -44.1687 -22.2614 -22.2614 -22.2508 -22.2508 -22.1062 -22.1062
    -6.8373  -6.8208  -6.6288  -6.6227  -6.5169  -6.5113  -5.0898  -5.0895
    -4.3848  -4.3617  -0.3305  -0.3254   0.2110   0.2197   1.0147   1.0198
     1.4559   1.5823   2.1066   2.2629   2.3040   2.3776   2.5981   2.6504
     2.9156   2.9815   3.1582   3.2464   3.4288   3.5086   3.5806   3.6443
     4.2047   4.3463   6.5047   6.5264   6.6643   6.7423   7.2828   7.2863
     7.5276   7.5911

          k =-1.0162-0.2579-0.2971 ( 36528 PWs)   bands (ev):

   -44.1687 -44.1687 -22.2614 -22.2614 -22.2508 -22.2508 -22.1062 -22.1062
    -6.8215  -6.8215  -6.6486  -6.6486  -6.4986  -6.4986  -5.0886  -5.0886
    -4.3749  -4.3749  -0.3842  -0.3842   0.3478   0.3478   0.9992   0.9992
     1.4916   1.4916   2.0512   2.0512   2.3172   2.3172   2.7173   2.7173
     2.7710   2.7710   3.2427   3.2427   3.5893   3.5893   3.7319   3.7319
     4.3520   4.3520   6.2146   6.2146   6.5985   6.5985   7.2924   7.2924
     7.6752   7.6752

          k = 0.5081 0.0000 0.0000 ( 36503 PWs)   bands (ev):

   -44.1699 -44.1699 -22.2681 -22.2681 -22.2191 -22.2191 -22.1097 -22.1096
    -8.1602  -8.0447  -6.9356  -6.8539  -5.7161  -5.1985  -4.9585  -4.5703
    -4.5507  -4.5395  -0.3589   0.1367   0.7039   0.7801   1.1734   1.2982
     1.5738   1.6382   1.7132   2.0703   2.1297   2.5186   2.6931   3.3947
     3.4560   3.5765   3.6368   3.7655   3.7901   3.9039   4.0371   4.2936
     4.3415   4.7136   6.1135   6.2448   6.3950   6.5799   6.6433   7.1993
     7.3592   7.5593

          k = 0.5081 0.0000 0.1485 ( 36453 PWs)   bands (ev):

   -44.1699 -44.1699 -22.2681 -22.2681 -22.2191 -22.2191 -22.1097 -22.1096
    -8.1449  -8.0634  -6.9214  -6.8639  -5.6665  -5.3358  -4.8453  -4.6084
    -4.5575  -4.5197  -0.2971   0.0648   0.6975   0.8437   1.1457   1.1658
     1.3771   1.5819   1.9978   2.1068   2.2155   2.5713   2.9392   3.2800
     3.4734   3.4995   3.5854   3.7574   3.8229   3.8848   3.8964   4.3067
     4.3760   4.4285   6.3173   6.4122   6.5001   6.5757   6.7548   7.0785
     7.2339   7.5454

          k = 0.5081 0.0000-0.2971 ( 36452 PWs)   bands (ev):

   -44.1699 -44.1699 -22.2681 -22.2681 -22.2191 -22.2191 -22.1097 -22.1097
    -8.1058  -8.1058  -6.8905  -6.8905  -5.5281  -5.5281  -4.7074  -4.7074
    -4.5309  -4.5309  -0.1279  -0.1279   0.8491   0.8491   1.0022   1.0022
     1.4651   1.4651   2.0646   2.0646   2.5893   2.5893   3.1975   3.1975
     3.3889   3.3889   3.6118   3.6118   3.8330   3.8330   3.9870   3.9870
     4.3997   4.3997   6.5364   6.5364   6.5671   6.5671   6.9148   6.9148
     7.3689   7.3689

          k = 0.7622 0.0645 0.0000 ( 36505 PWs)   bands (ev):

   -44.1690 -44.1690 -22.2634 -22.2634 -22.2416 -22.2416 -22.1072 -22.1072
    -7.5320  -7.4145  -6.7934  -6.7238  -5.8066  -5.7000  -5.1546  -5.0793
    -4.4352  -4.4204  -0.4362  -0.0792   0.0385   0.8415   0.9019   1.3402
     1.4749   1.5458   1.9906   2.0245   2.2545   2.3898   2.4530   2.8053
     3.0607   3.1811   3.3370   3.4248   3.6142   3.6509   3.7193   3.7824
     3.8719   4.6260   6.4505   6.5273   6.7555   7.0002   7.0348   7.0645
     7.4147   7.6547

          k = 0.7622 0.0645 0.1485 ( 36509 PWs)   bands (ev):

   -44.1690 -44.1690 -22.2634 -22.2634 -22.2416 -22.2416 -22.1072 -22.1072
    -7.5168  -7.4341  -6.7813  -6.7324  -5.7885  -5.7129  -5.1473  -5.0945
    -4.4321  -4.4218  -0.3982  -0.1476   0.1429   0.7090   0.9396   1.2712
     1.4798   1.5741   1.9195   1.9616   2.2598   2.5142   2.7363   2.9068
     2.9705   3.0248   3.2791   3.3197   3.5409   3.5725   3.8356   3.9625
     3.9705   4.4649   6.3185   6.5008   6.8531   6.9846   7.0524   7.2087
     7.2660   7.7111

          k = 0.7622 0.0645-0.2971 ( 36472 PWs)   bands (ev):

   -44.1690 -44.1690 -22.2634 -22.2634 -22.2416 -22.2416 -22.1072 -22.1072
    -7.4776  -7.4775  -6.7552  -6.7552  -5.7480  -5.7480  -5.1248  -5.1248
    -4.4261  -4.4261  -0.2875  -0.2875   0.4093   0.4093   1.0809   1.0809
     1.5462   1.5462   1.9075   1.9075   2.5061   2.5061   2.8604   2.8604
     2.9083   2.9083   3.2783   3.2783   3.5772   3.5772   4.0061   4.0061
     4.0971   4.0971   6.5918   6.5918   6.6233   6.6233   7.0856   7.0856
     7.6711   7.6711

          k = 1.0162 0.1290 0.0000 ( 36514 PWs)   bands (ev):

   -44.1687 -44.1687 -22.2614 -22.2614 -22.2508 -22.2508 -22.1062 -22.1062
    -6.8466  -6.8249  -6.5958  -6.5931  -6.5450  -6.5330  -5.0909  -5.0904
    -4.3880  -4.3553  -0.2538  -0.2269   0.0536   0.0773   1.0070   1.0330
     1.4747   1.6375   2.1707   2.3292   2.3707   2.3756   2.7393   2.8954
     2.9120   2.9564   3.1414   3.1854   3.2744   3.3039   3.4314   3.5705
     4.0938   4.3618   6.7616   6.8424   6.9942   7.0529   7.1870   7.2698
     7.2721   7.3122

          k = 1.0162 0.1290 0.1485 ( 36524 PWs)   bands (ev):

   -44.1687 -44.1687 -22.2614 -22.2614 -22.2508 -22.2508 -22.1062 -22.1062
    -6.8374  -6.8208  -6.6288  -6.6227  -6.5169  -6.5113  -5.0898  -5.0895
    -4.3848  -4.3617  -0.3331  -0.3230   0.2120   0.2191   1.0097   1.0247
     1.4633   1.5745   2.1083   2.2522   2.3066   2.3800   2.6053   2.6525
     2.8967   2.9974   3.1601   3.2421   3.4375   3.4834   3.5979   3.6458
     4.1849   4.3662   6.5030   6.5366   6.6601   6.7432   7.2838   7.2866
     7.5311   7.5852

          k = 1.0162 0.1290-0.2971 ( 36516 PWs)   bands (ev):

   -44.1687 -44.1687 -22.2614 -22.2614 -22.2508 -22.2508 -22.1062 -22.1062
    -6.8215  -6.8215  -6.6486  -6.6486  -6.4986  -6.4986  -5.0886  -5.0886
    -4.3749  -4.3749  -0.3843  -0.3843   0.3480   0.3480   0.9989   0.9989
     1.4928   1.4928   2.0503   2.0503   2.3161   2.3161   2.7028   2.7028
     2.7883   2.7883   3.2387   3.2387   3.5913   3.5913   3.7315   3.7315
     4.3530   4.3530   6.2182   6.2182   6.5973   6.5973   7.2929   7.2929
     7.6723   7.6724

          k =-0.7622-0.3224 0.0000 ( 36511 PWs)   bands (ev):

   -44.1690 -44.1690 -22.2634 -22.2634 -22.2416 -22.2416 -22.1072 -22.1072
    -7.5263  -7.4132  -6.8008  -6.7239  -5.8048  -5.7033  -5.1577  -5.0788
    -4.4569  -4.3975  -0.4538  -0.0960   0.0417   0.8436   0.8607   1.3126
     1.5010   1.6679   2.0614   2.0822   2.2138   2.3346   2.4912   2.8690
     3.0720   3.1445   3.3294   3.3894   3.5194   3.6035   3.6950   3.7208
     4.1036   4.5901   6.4523   6.6060   6.6874   6.9385   7.0606   7.1523
     7.4083   7.5155

          k =-0.7622-0.3224 0.1485 ( 36492 PWs)   bands (ev):

   -44.1690 -44.1690 -22.2634 -22.2634 -22.2416 -22.2416 -22.1072 -22.1072
    -7.5116  -7.4320  -6.7881  -6.7340  -5.7870  -5.7149  -5.1498  -5.0946
    -4.4474  -4.4057  -0.4158  -0.1640   0.1483   0.7282   0.8876   1.2461
     1.5223   1.5984   2.0046   2.0725   2.2328   2.5202   2.6993   2.9438
     2.9666   3.0478   3.2408   3.2882   3.4716   3.5714   3.8129   3.8814
     4.1208   4.4905   6.2606   6.5655   6.7953   6.9869   7.0912   7.1982
     7.3000   7.5846

          k =-0.7622-0.3224-0.2971 ( 36508 PWs)   bands (ev):

   -44.1690 -44.1690 -22.2634 -22.2634 -22.2416 -22.2416 -22.1072 -22.1072
    -7.4737  -7.4737  -6.7597  -6.7597  -5.7479  -5.7479  -5.1262  -5.1262
    -4.4259  -4.4259  -0.3045  -0.3045   0.4210   0.4210   1.0466   1.0466
     1.5556   1.5556   2.0244   2.0244   2.4783   2.4783   2.8607   2.8607
     2.9658   2.9658   3.1860   3.1860   3.5781   3.5781   3.9240   3.9240
     4.2138   4.2138   6.5383   6.5383   6.6155   6.6155   7.1551   7.1551
     7.5666   7.5667

          k =-0.5081-0.2579 0.0000 ( 36480 PWs)   bands (ev):

   -44.1699 -44.1699 -22.2681 -22.2681 -22.2191 -22.2191 -22.1097 -22.1096
    -8.1570  -8.0438  -6.9362  -6.8520  -5.7253  -5.2021  -4.9649  -4.5892
    -4.5525  -4.5171  -0.3715   0.1581   0.6685   0.7783   1.1838   1.4269
     1.6153   1.6501   1.7850   2.0505   2.1311   2.5480   2.6704   3.3337
     3.4806   3.4945   3.6102   3.6946   3.7768   3.8184   4.1274   4.2245
     4.2768   4.7621   6.0939   6.2907   6.3491   6.7046   6.8233   7.0615
     7.3512   7.4512

          k =-0.5081-0.2579 0.1485 ( 36485 PWs)   bands (ev):

   -44.1699 -44.1699 -22.2681 -22.2681 -22.2191 -22.2191 -22.1097 -22.1096
    -8.1419  -8.0621  -6.9220  -6.8627  -5.6746  -5.3398  -4.8534  -4.6102
    -4.5675  -4.5049  -0.3070   0.0774   0.6816   0.8366   1.1364   1.2010
     1.5114   1.6616   1.9843   2.0565   2.2819   2.5961   2.9197   3.2295
     3.3972   3.5265   3.5451   3.6942   3.7576   3.7910   4.0445   4.2308
     4.2930   4.4947   6.3643   6.3783   6.4695   6.7037   6.8762   6.9715
     7.2053   7.4687

          k =-0.5081-0.2579-0.2971 ( 36478 PWs)   bands (ev):

   -44.1699 -44.1699 -22.2681 -22.2681 -22.2191 -22.2191 -22.1097 -22.1097
    -8.1036  -8.1036  -6.8906  -6.8906  -5.5339  -5.5339  -4.7152  -4.7152
    -4.5259  -4.5259  -0.1299  -0.1299   0.8610   0.8610   0.9890   0.9890
     1.5812   1.5812   2.0382   2.0382   2.6402   2.6402   3.1331   3.1331
     3.3564   3.3564   3.6161   3.6161   3.7333   3.7333   4.0577   4.0577
     4.3480   4.3480   6.5207   6.5207   6.6538   6.6538   6.8639   6.8639
     7.3463   7.3463

          k =-0.2541-0.1934 0.0000 ( 36410 PWs)   bands (ev):

   -44.1708 -44.1707 -22.2728 -22.2728 -22.1966 -22.1966 -22.1122 -22.1121
    -8.5517  -8.4356  -7.0798  -6.9745  -5.8707  -5.3297  -4.7151  -4.6377
    -4.5666  -3.9095   0.1793   0.4227   0.9075   0.9872   1.0795   1.2895
     1.3590   1.6255   1.7625   2.5904   2.6474   3.1029   3.4465   3.6558
     3.7449   3.7627   3.9239   3.9243   3.9868   4.2431   4.2687   4.4406
     4.5184   4.7276   6.0327   6.0991   6.1014   6.2068   6.3394   6.8971
     7.0458   7.2157

          k =-0.2541-0.1934 0.1485 ( 36427 PWs)   bands (ev):

   -44.1708 -44.1708 -22.2728 -22.2728 -22.1966 -22.1966 -22.1122 -22.1121
    -8.5362  -8.4544  -7.0617  -6.9875  -5.8163  -5.4539  -4.7032  -4.6463
    -4.4301  -3.9833   0.2445   0.4180   0.7368   0.9751   1.0960   1.2185
     1.3727   1.7320   2.0043   2.5905   2.6380   2.9030   3.4561   3.4893
     3.5834   3.8474   3.9045   3.9212   4.0722   4.2440   4.4455   4.4974
     4.5652   4.8048   5.8959   5.9207   6.1555   6.2218   6.2699   6.8832
     7.1867   7.2062

          k =-0.2541-0.1934-0.2971 ( 36422 PWs)   bands (ev):

   -44.1708 -44.1708 -22.2728 -22.2728 -22.1966 -22.1966 -22.1121 -22.1121
    -8.4969  -8.4969  -7.0221  -7.0221  -5.6628  -5.6628  -4.6746  -4.6746
    -4.1811  -4.1811   0.3753   0.3753   0.7108   0.7108   1.1833   1.1833
     1.5966   1.5966   2.4629   2.4629   2.6452   2.6452   3.3332   3.3332
     3.7702   3.7702   3.8775   3.8775   4.2023   4.2023   4.4752   4.4752
     4.8579   4.8579   5.7280   5.7280   6.1747   6.1747   6.5397   6.5397
     7.3097   7.3097

          k = 0.0000-0.1290 0.0000 ( 36417 PWs)   bands (ev):

   -44.1711 -44.1711 -22.2747 -22.2747 -22.1872 -22.1872 -22.1133 -22.1131
    -8.6859  -8.5682  -7.1412  -7.0257  -5.9214  -5.3766  -4.7523  -4.6872
    -4.4739  -3.6824   0.1139   0.8870   0.9200   1.1119   1.2031   1.2673
     1.3120   1.5469   2.2631   2.8642   2.9061   2.9280   3.0979   3.5165
     3.9935   4.0212   4.0422   4.0425   4.2835   4.4571   4.5682   4.5989
     4.8024   4.9479   5.6155   5.7964   5.8694   6.0284   6.2906   6.5180
     7.1847   7.2491

          k = 0.0000-0.1290 0.1485 ( 36419 PWs)   bands (ev):

   -44.1711 -44.1711 -22.2747 -22.2747 -22.1872 -22.1872 -22.1132 -22.1131
    -8.6702  -8.5872  -7.1213  -7.0399  -5.8671  -5.5013  -4.7399  -4.6949
    -4.3221  -3.7798   0.1958   0.7913   0.9580   1.0135   1.1748   1.2735
     1.3051   1.8236   1.9917   2.8744   2.9065   2.9195   3.2945   3.5914
     3.9034   4.0048   4.0376   4.0819   4.3477   4.3595   4.5176   4.6698
     4.6871   4.7874   5.7806   5.8347   5.8621   6.2101   6.4020   6.4163
     6.9946   7.0335

          k = 0.0000-0.1290-0.2971 ( 36464 PWs)   bands (ev):

   -44.1711 -44.1711 -22.2747 -22.2747 -22.1872 -22.1872 -22.1132 -22.1132
    -8.6303  -8.6303  -7.0777  -7.0777  -5.7127  -5.7127  -4.7164  -4.7164
    -4.0290  -4.0290   0.4324   0.4324   1.0475   1.0475   1.2890   1.2890
     1.3940   1.3940   2.4644   2.4644   2.8977   2.8977   3.7036   3.7036
     3.8611   3.8611   4.1418   4.1418   4.1933   4.1933   4.5205   4.5205
     4.7433   4.7433   5.8324   5.8324   6.1336   6.1336   6.6027   6.6027
     6.6857   6.6857

          k = 1.0162 0.0000 0.0000 ( 36499 PWs)   bands (ev):

   -44.1687 -44.1687 -22.2614 -22.2614 -22.2508 -22.2508 -22.1062 -22.1062
    -6.8466  -6.8249  -6.5958  -6.5930  -6.5449  -6.5331  -5.0909  -5.0904
    -4.3880  -4.3553  -0.2576  -0.2230   0.0521   0.0787   1.0022   1.0384
     1.4840   1.6246   2.1668   2.3473   2.3553   2.3802   2.7281   2.9263
     2.9289   2.9366   3.1051   3.2184   3.2769   3.2773   3.4380   3.5758
     4.0769   4.3792   6.7556   6.8545   6.9819   7.0645   7.2484   7.2511
     7.2699   7.2734

          k = 1.0162 0.0000 0.1485 ( 36485 PWs)   bands (ev):

   -44.1687 -44.1687 -22.2614 -22.2614 -22.2508 -22.2508 -22.1062 -22.1062
    -6.8374  -6.8208  -6.6288  -6.6227  -6.5169  -6.5114  -5.0898  -5.0895
    -4.3848  -4.3617  -0.3349  -0.3215   0.2133   0.2182   1.0070   1.0274
     1.4720   1.5655   2.1102   2.2413   2.3120   2.3794   2.6173   2.6495
     2.8834   3.0084   3.1626   3.2368   3.4473   3.4653   3.6029   3.6517
     4.1688   4.3824   6.5028   6.5455   6.6561   6.7438   7.2848   7.2868
     7.5359   7.5780

          k = 1.0162 0.0000-0.2971 ( 36514 PWs)   bands (ev):

   -44.1687 -44.1687 -22.2614 -22.2614 -22.2508 -22.2508 -22.1062 -22.1062
    -6.8215  -6.8215  -6.6486  -6.6486  -6.4986  -6.4986  -5.0886  -5.0886
    -4.3749  -4.3749  -0.3844  -0.3844   0.3483   0.3483   0.9987   0.9987
     1.4940   1.4940   2.0494   2.0494   2.3150   2.3150   2.6926   2.6926
     2.8016   2.8016   3.2347   3.2347   3.5932   3.5932   3.7312   3.7312
     4.3540   4.3540   6.2218   6.2218   6.5961   6.5961   7.2934   7.2934
     7.6690   7.6690

          k = 1.2703 0.0645 0.0000 ( 36468 PWs)   bands (ev):

   -44.1690 -44.1690 -22.2634 -22.2634 -22.2416 -22.2416 -22.1072 -22.1072
    -7.5239  -7.4127  -6.8041  -6.7237  -5.8041  -5.7046  -5.1589  -5.0786
    -4.4619  -4.3920  -0.4609  -0.1024   0.0423   0.8248   0.8685   1.3033
     1.4992   1.7259   2.0795   2.1161   2.2758   2.3103   2.4044   2.9017
     3.0701   3.1667   3.3433   3.3686   3.5147   3.5599   3.6665   3.6871
     4.2081   4.5639   6.4530   6.6392   6.6734   6.8840   7.0866   7.2275
     7.3848   7.4837

          k = 1.2703 0.0645 0.1485 ( 36490 PWs)   bands (ev):

   -44.1690 -44.1690 -22.2634 -22.2634 -22.2416 -22.2416 -22.1072 -22.1072
    -7.5094  -7.4311  -6.7910  -6.7345  -5.7864  -5.7158  -5.1509  -5.0947
    -4.4509  -4.4019  -0.4230  -0.1705   0.1500   0.7358   0.8706   1.2363
     1.5284   1.6175   2.0518   2.0997   2.2491   2.5058   2.6581   2.9672
     2.9765   3.0720   3.2243   3.2692   3.4723   3.5392   3.7937   3.8480
     4.1953   4.4977   6.2402   6.5960   6.7655   6.9832   7.0882   7.2461
     7.3086   7.5235

          k = 1.2703 0.0645-0.2971 ( 36480 PWs)   bands (ev):

   -44.1690 -44.1690 -22.2634 -22.2634 -22.2416 -22.2416 -22.1072 -22.1072
    -7.4721  -7.4721  -6.7616  -6.7616  -5.7478  -5.7478  -5.1268  -5.1268
    -4.4259  -4.4259  -0.3114  -0.3114   0.4254   0.4254   1.0352   1.0352
     1.5611   1.5611   2.0658   2.0658   2.4759   2.4759   2.8649   2.8649
     2.9788   2.9788   3.1573   3.1573   3.5706   3.5706   3.8913   3.8913
     4.2619   4.2619   6.5190   6.5190   6.6120   6.6120   7.1892   7.1892
     7.4951   7.4951

          k =-0.5081-0.3869 0.0000 ( 36463 PWs)   bands (ev):

   -44.1699 -44.1699 -22.2681 -22.2681 -22.2191 -22.2191 -22.1097 -22.1096
    -8.1547  -8.0433  -6.9371  -6.8502  -5.7319  -5.2047  -4.9695  -4.5965
    -4.5537  -4.5073  -0.3801   0.1730   0.6516   0.7692   1.1917   1.5461
     1.6451   1.6604   1.8252   2.0265   2.1465   2.5444   2.6516   3.2665
     3.4583   3.5329   3.5978   3.6080   3.7201   3.8183   4.1286   4.2106
     4.2638   4.7909   6.0833   6.2260   6.4163   6.8015   6.9658   6.9725
     7.3315   7.4039

          k =-0.5081-0.3869 0.1485 ( 36477 PWs)   bands (ev):

   -44.1699 -44.1699 -22.2681 -22.2681 -22.2191 -22.2191 -22.1097 -22.1096
    -8.1398  -8.0612  -6.9227  -6.8615  -5.6804  -5.3426  -4.8591  -4.6118
    -4.5715  -4.4973  -0.3139   0.0859   0.6733   0.8279   1.1351   1.2245
     1.6335   1.7328   1.9445   2.0241   2.3418   2.5883   2.8992   3.1851
     3.3431   3.5274   3.5534   3.6163   3.7411   3.7572   4.1203   4.1663
     4.2617   4.5286   6.3108   6.4132   6.4705   6.7945   6.8627   7.0299
     7.1689   7.4369

          k =-0.5081-0.3869-0.2971 ( 36492 PWs)   bands (ev):

   -44.1699 -44.1699 -22.2681 -22.2681 -22.2191 -22.2191 -22.1097 -22.1097
    -8.1021  -8.1021  -6.8906  -6.8906  -5.5379  -5.5379  -4.7205  -4.7205
    -4.5225  -4.5225  -0.1312  -0.1312   0.8695   0.8695   0.9799   0.9799
     1.6882   1.6882   1.9984   1.9984   2.6974   2.6974   3.0441   3.0441
     3.3462   3.3462   3.6115   3.6115   3.6859   3.6859   4.0906   4.0906
     4.3245   4.3245   6.4917   6.4917   6.7061   6.7061   6.8459   6.8459
     7.3527   7.3528

          k =-0.2541-0.3224 0.0000 ( 36485 PWs)   bands (ev):

   -44.1708 -44.1708 -22.2728 -22.2728 -22.1966 -22.1966 -22.1122 -22.1121
    -8.5494  -8.4351  -7.0767  -6.9708  -5.8859  -5.3373  -4.7336  -4.6246
    -4.5650  -3.9102   0.2048   0.4151   0.8987   0.9940   1.1990   1.3226
     1.4104   1.7149   1.7781   2.5292   2.6035   3.1447   3.5166   3.5883
     3.6160   3.6671   3.8026   3.9005   3.9910   4.1632   4.1813   4.3935
     4.4309   4.7887   6.0507   6.1248   6.1953   6.3102   6.3847   6.9624
     6.9696   7.1379

          k =-0.2541-0.3224 0.1485 ( 36445 PWs)   bands (ev):

   -44.1708 -44.1708 -22.2728 -22.2728 -22.1966 -22.1966 -22.1122 -22.1121
    -8.5341  -8.4535  -7.0589  -6.9843  -5.8301  -5.4620  -4.7174  -4.6383
    -4.4286  -3.9835   0.2708   0.4143   0.7332   1.0083   1.1771   1.2751
     1.4217   1.7546   2.0671   2.5314   2.5962   2.9414   3.4410   3.4652
     3.6381   3.6556   3.7052   3.9215   4.0337   4.1800   4.3932   4.4225
     4.5390   4.8536   5.8843   5.9387   6.2105   6.2945   6.3715   6.8288
     7.1833   7.1913

          k =-0.2541-0.3224-0.2971 ( 36442 PWs)   bands (ev):

   -44.1708 -44.1708 -22.2728 -22.2728 -22.1966 -22.1966 -22.1121 -22.1121
    -8.4953  -8.4953  -7.0194  -7.0194  -5.6734  -5.6734  -4.6779  -4.6779
    -4.1802  -4.1802   0.3896   0.3896   0.7242   0.7242   1.2635   1.2635
     1.6226   1.6226   2.4777   2.4777   2.6311   2.6311   3.3194   3.3194
     3.6415   3.6415   3.8377   3.8377   4.1477   4.1477   4.4101   4.4101
     4.8770   4.8770   5.7223   5.7223   6.2363   6.2363   6.5511   6.5511
     7.2995   7.2995

          k = 0.0000-0.2579 0.0000 ( 36445 PWs)   bands (ev):

   -44.1711 -44.1711 -22.2747 -22.2747 -22.1872 -22.1872 -22.1133 -22.1131
    -8.6838  -8.5677  -7.1368  -7.0219  -5.9382  -5.3857  -4.7690  -4.6734
    -4.4750  -3.6827   0.1395   0.8920   1.0271   1.1385   1.2592   1.2667
     1.3114   1.6206   2.2532   2.8816   2.9080   2.9388   3.1070   3.6218
     3.6878   3.7322   4.0135   4.0318   4.1628   4.4495   4.4582   4.5643
     4.7982   4.9278   5.6546   5.8817   5.9588   6.0996   6.3113   6.5533
     7.0625   7.2495

          k = 0.0000-0.2579 0.1485 ( 36452 PWs)   bands (ev):

   -44.1711 -44.1711 -22.2747 -22.2747 -22.1872 -22.1872 -22.1132 -22.1131
    -8.6683  -8.5864  -7.1172  -7.0363  -5.8826  -5.5109  -4.7536  -4.6857
    -4.3223  -3.7799   0.2240   0.8286   1.0122   1.0683   1.2361   1.2729
     1.3046   1.8405   2.0297   2.8909   2.9255   2.9313   3.2712   3.6531
     3.6998   3.7541   3.9417   4.0541   4.2430   4.3309   4.4257   4.6539
     4.6643   4.7828   5.8331   5.9006   5.9445   6.2283   6.4194   6.4552
     6.8841   7.0374

          k = 0.0000-0.2579-0.2971 ( 36454 PWs)   bands (ev):

   -44.1711 -44.1711 -22.2747 -22.2747 -22.1872 -22.1872 -22.1132 -22.1132
    -8.6289  -8.6289  -7.0742  -7.0742  -5.7250  -5.7250  -4.7191  -4.7191
    -4.0288  -4.0288   0.4666   0.4666   1.1256   1.1256   1.2884   1.2884
     1.4041   1.4041   2.5012   2.5012   2.9119   2.9119   3.6094   3.6094
     3.7868   3.7868   4.0287   4.0287   4.1688   4.1688   4.4379   4.4379
     4.7359   4.7359   5.9017   5.9017   6.1752   6.1752   6.5474   6.5474
     6.6964   6.6964

          k = 1.5243 0.0000 0.0000 ( 36439 PWs)   bands (ev):

   -44.1699 -44.1699 -22.2681 -22.2681 -22.2191 -22.2191 -22.1097 -22.1096
    -8.1537  -8.0430  -6.9376  -6.8493  -5.7347  -5.2057  -4.9714  -4.5989
    -4.5543  -4.5038  -0.3837   0.1791   0.6458   0.7642   1.1950   1.6123
     1.6577   1.6726   1.8127   2.0160   2.1731   2.5240   2.6432   3.2475
     3.4406   3.5536   3.5639   3.6080   3.6954   3.8178   4.0891   4.2427
     4.2583   4.8019   6.0793   6.1962   6.4478   6.8447   6.9372   7.0380
     7.3084   7.4587

          k = 1.5243 0.0000 0.1485 ( 36476 PWs)   bands (ev):

   -44.1699 -44.1699 -22.2681 -22.2681 -22.2191 -22.2191 -22.1097 -22.1096
    -8.1389  -8.0609  -6.9231  -6.8610  -5.6828  -5.3437  -4.8614  -4.6125
    -4.5728  -4.4945  -0.3167   0.0894   0.6705   0.8235   1.1352   1.2337
     1.7184   1.7522   1.9151   1.9998   2.3905   2.5591   2.8862   3.1827
     3.3030   3.5333   3.5569   3.5915   3.7281   3.7504   4.1149   4.1723
     4.2502   4.5427   6.2834   6.4314   6.4723   6.8295   6.8359   7.1123
     7.1240   7.4500

          k = 1.5243 0.0000-0.2971 ( 36508 PWs)   bands (ev):

   -44.1699 -44.1699 -22.2681 -22.2681 -22.2191 -22.2191 -22.1097 -22.1097
    -8.1014  -8.1014  -6.8907  -6.8907  -5.5396  -5.5396  -4.7227  -4.7227
    -4.5211  -4.5211  -0.1318  -0.1318   0.8731   0.8731   0.9761   0.9761
     1.7490   1.7490   1.9666   1.9666   2.7353   2.7353   2.9876   2.9876
     3.3448   3.3448   3.6053   3.6053   3.6739   3.6739   4.0969   4.0969
     4.3214   4.3214   6.4797   6.4797   6.7119   6.7119   6.8499   6.8499
     7.3679   7.3680

          k =-0.2541-0.4514 0.0000 ( 36444 PWs)   bands (ev):

   -44.1708 -44.1708 -22.2728 -22.2728 -22.1966 -22.1966 -22.1122 -22.1121
    -8.5478  -8.4346  -7.0749  -6.9678  -5.8968  -5.3426  -4.7450  -4.6148
    -4.5659  -3.9107   0.2192   0.4100   0.8960   0.9997   1.3202   1.3451
     1.4223   1.7769   1.8254   2.4660   2.5341   3.2176   3.4432   3.4723
     3.5704   3.6120   3.8646   3.8907   3.9925   4.0817   4.1250   4.3148
     4.4128   4.8291   6.0468   6.1462   6.2798   6.3725   6.4100   6.8995
     7.0061   7.0901

          k =-0.2541-0.4514 0.1485 ( 36461 PWs)   bands (ev):

   -44.1708 -44.1708 -22.2728 -22.2728 -22.1966 -22.1966 -22.1122 -22.1121
    -8.5327  -8.4528  -7.0571  -6.9817  -5.8399  -5.4677  -4.7261  -4.6338
    -4.4276  -3.9836   0.2864   0.4116   0.7307   1.0301   1.2155   1.3562
     1.4611   1.7799   2.1342   2.4714   2.5231   2.9905   3.3744   3.4102
     3.5215   3.5921   3.7768   3.9194   4.0189   4.0862   4.3421   4.4001
     4.5225   4.8864   5.8774   5.9496   6.2506   6.3350   6.4319   6.7671
     7.1764   7.2045

          k =-0.2541-0.4514-0.2971 ( 36490 PWs)   bands (ev):

   -44.1708 -44.1708 -22.2728 -22.2728 -22.1966 -22.1966 -22.1121 -22.1121
    -8.4943  -8.4943  -7.0175  -7.0175  -5.6810  -5.6810  -4.6803  -4.6803
    -4.1796  -4.1796   0.3979   0.3979   0.7317   0.7317   1.3298   1.3298
     1.6532   1.6532   2.4806   2.4806   2.6129   2.6129   3.2893   3.2893
     3.5088   3.5088   3.9050   3.9050   4.0801   4.0801   4.3727   4.3727
     4.8890   4.8890   5.7206   5.7206   6.2573   6.2573   6.5599   6.5599
     7.2981   7.2981

          k = 0.0000-0.3869 0.0000 ( 36477 PWs)   bands (ev):

   -44.1711 -44.1711 -22.2747 -22.2747 -22.1872 -22.1872 -22.1133 -22.1131
    -8.6818  -8.5672  -7.1328  -7.0174  -5.9553  -5.3946  -4.7829  -4.6618
    -4.4769  -3.6830   0.1586   0.9004   1.1613   1.1682   1.2661   1.3109
     1.3268   1.6952   2.2446   2.9004   2.9182   2.9492   3.1275   3.3541
     3.4482   3.7691   3.9844   4.0339   4.0576   4.2958   4.4593   4.5297
     4.7942   4.9114   5.6941   5.9407   6.0154   6.1882   6.3323   6.5832
     6.9156   7.2496

          k = 0.0000-0.3869 0.1485 ( 36452 PWs)   bands (ev):

   -44.1711 -44.1711 -22.2747 -22.2747 -22.1872 -22.1872 -22.1132 -22.1131
    -8.6664  -8.5856  -7.1134  -7.0322  -5.8981  -5.5205  -4.7647  -4.6790
    -4.3227  -3.7800   0.2454   0.8604   1.0261   1.2040   1.2723   1.3040
     1.3064   1.8540   2.0786   2.9085   2.9429   2.9570   3.2240   3.3553
     3.4617   3.8400   3.9677   4.0259   4.1444   4.2802   4.3124   4.6398
     4.6553   4.7784   5.8820   5.9488   5.9941   6.2556   6.4372   6.4871
     6.7546   7.0412

          k = 0.0000-0.3869-0.2971 ( 36454 PWs)   bands (ev):

   -44.1711 -44.1711 -22.2747 -22.2747 -22.1872 -22.1872 -22.1132 -22.1132
    -8.6275  -8.6275  -7.0706  -7.0706  -5.7372  -5.7372  -4.7218  -4.7218
    -4.0286  -4.0286   0.4940   0.4940   1.2238   1.2238   1.2879   1.2879
     1.4212   1.4212   2.5473   2.5473   2.9266   2.9266   3.3274   3.3274
     3.8130   3.8130   4.0200   4.0200   4.1435   4.1435   4.3475   4.3475
     4.7292   4.7292   5.9440   5.9440   6.2222   6.2222   6.4754   6.4754
     6.7072   6.7072

          k =-2.0325 0.0000 0.0000 ( 36452 PWs)   bands (ev):

   -44.1711 -44.1711 -22.2747 -22.2747 -22.1872 -22.1872 -22.1133 -22.1131
    -8.6809  -8.5670  -7.1312  -7.0153  -5.9624  -5.3983  -4.7881  -4.6572
    -4.4778  -3.6832   0.1645   0.9047   1.1696   1.2658   1.2823   1.3074
     1.3106   1.7381   2.2422   2.9088   2.9251   2.9532   3.1232   3.2493
     3.3049   3.9048   3.9297   3.9722   4.0674   4.2074   4.4597   4.5154
     4.7925   4.9051   5.7105   5.9600   6.0331   6.2357   6.3412   6.5938
     6.8438   7.2496

          k =-2.0325 0.0000 0.1485 ( 36456 PWs)   bands (ev):

   -44.1711 -44.1711 -22.2747 -22.2747 -22.1872 -22.1872 -22.1132 -22.1131
    -8.6656  -8.5853  -7.1120  -7.0304  -5.9046  -5.5244  -4.7688  -4.6766
    -4.3228  -3.7800   0.2523   0.8732   1.0308   1.2721   1.2976   1.3038
     1.3153   1.8592   2.1066   2.9163   2.9476   2.9779   3.1471   3.2422
     3.3789   3.9266   3.9732   4.0140   4.1162   4.1786   4.3041   4.6345
     4.6526   4.7766   5.9032   5.9649   6.0082   6.2737   6.4447   6.4982
     6.6922   7.0427

          k =-2.0325 0.0000-0.2971 ( 36460 PWs)   bands (ev):

   -44.1711 -44.1711 -22.2747 -22.2747 -22.1872 -22.1872 -22.1132 -22.1132
    -8.6269  -8.6269  -7.0691  -7.0691  -5.7423  -5.7423  -4.7229  -4.7229
    -4.0285  -4.0285   0.5035   0.5035   1.2696   1.2696   1.2876   1.2876
     1.4336   1.4336   2.5731   2.5731   2.9329   2.9329   3.1927   3.1927
     3.8258   3.8258   4.0299   4.0299   4.1329   4.1329   4.3054   4.3054
     4.7265   4.7265   5.9573   5.9573   6.2465   6.2465   6.4376   6.4376
     6.7118   6.7118

     the Fermi energy is     5.2373 ev

!    total energy              =   -4240.88609459 Ry

     total all-electron energy =   -150287.579789 Ry
     estimated scf accuracy    <          2.3E-11 Ry
     smearing contrib. (-TS)   =       0.00000000 Ry
     internal energy E=F+TS    =   -4240.88609459 Ry

     The total energy is F=E-TS. E is the sum of the following terms:
     one-electron contribution =    -169.83085876 Ry
     hartree contribution      =     118.33740135 Ry
     xc contribution           =    -201.72344244 Ry
     ewald contribution        =    -220.10601154 Ry
     one-center paw contrib.   =   -3767.56318320 Ry

     convergence has been achieved in  17 iterations

     Forces acting on atoms (cartesian axes, Ry/au):

     atom    1 type  1   force =     0.00000000    0.03048937    0.00000000
     atom    2 type  1   force =     0.00000000   -0.03048937    0.00000000
     atom    3 type  2   force =     0.00000000   -0.00064547    0.00000000
     atom    4 type  2   force =     0.00000000    0.00064547    0.00000000
     atom    5 type  2   force =     0.00000000   -0.00717533   -0.00586140
     atom    6 type  2   force =     0.00000000    0.00717533    0.00586140
     atom    7 type  2   force =    -0.00000000   -0.00717533    0.00586140
     atom    8 type  2   force =    -0.00000000    0.00717533   -0.00586140
     atom    9 type  2   force =     0.00000000   -0.06270717   -0.07885859
     atom   10 type  2   force =     0.00000000    0.06270717    0.07885859
     atom   11 type  2   force =     0.00000000   -0.06270717    0.07885859
     atom   12 type  2   force =    -0.00000000    0.06270717   -0.07885859

     Total force =     0.206898     Total SCF correction =     0.000007


     Computing stress (Cartesian axis) and pressure

          total   stress  (Ry/bohr**3)                   (kbar)     P=       19.13
   0.00017645   0.00000000   0.00000000           25.96        0.00        0.00
   0.00000000   0.00005486   0.00000000            0.00        8.07        0.00
   0.00000000   0.00000000   0.00015881            0.00        0.00       23.36

 
     init_run     :     19.71s CPU     20.19s WALL (       1 calls)
     electrons    :    876.15s CPU    886.37s WALL (       1 calls)
     forces       :      6.70s CPU      6.92s WALL (       1 calls)
     stress       :     42.50s CPU     43.10s WALL (       1 calls)

     Called by init_run:
     wfcinit      :     15.18s CPU     15.37s WALL (       1 calls)
     potinit      :      1.41s CPU      1.45s WALL (       1 calls)
     hinit0       :      1.78s CPU      1.83s WALL (       1 calls)

     Called by electrons:
     c_bands      :    725.40s CPU    728.40s WALL (      18 calls)
     sum_band     :    126.01s CPU    129.90s WALL (      18 calls)
     v_of_rho     :      5.41s CPU      5.67s WALL (      18 calls)
     newd         :     13.75s CPU     16.98s WALL (      18 calls)
     PAW_pot      :      5.67s CPU      5.68s WALL (      18 calls)
     mix_rho      :      0.80s CPU      0.82s WALL (      18 calls)

     Called by c_bands:
     init_us_2    :     11.15s CPU     11.20s WALL (    2457 calls)
     cegterg      :    651.79s CPU    654.32s WALL (    1134 calls)

     Called by *egterg:
     cdiaghg      :     24.53s CPU     24.60s WALL (    7324 calls)
     h_psi        :    503.47s CPU    505.90s WALL (    7450 calls)
     s_psi        :     40.70s CPU     40.75s WALL (    7450 calls)
     g_psi        :      1.80s CPU      1.81s WALL (    6253 calls)

     Called by h_psi:
     h_psi:calbec :     35.39s CPU     35.45s WALL (    7450 calls)
     vloc_psi     :    424.78s CPU    426.99s WALL (    7450 calls)
     add_vuspsi   :     40.47s CPU     40.53s WALL (    7450 calls)

     General routines
     calbec       :     48.06s CPU     48.16s WALL (    8899 calls)
     fft          :      3.24s CPU      3.37s WALL (     258 calls)
     ffts         :      0.08s CPU      0.08s WALL (      36 calls)
     fftw         :    401.63s CPU    403.63s WALL (  400772 calls)
     interpolate  :      0.31s CPU      0.31s WALL (      18 calls)
 
     Parallel routines
 
     PWSCF        :  15m45.31s CPU  15m56.90s WALL

 
   This run was terminated on:  15:32:56  19Nov2021            

=------------------------------------------------------------------------------=
   JOB DONE.
=------------------------------------------------------------------------------=
