
     Program PWSCF v.6.8 starts on 19Nov2021 at 15:16:39 

     This program is part of the open-source Quantum ESPRESSO suite
     for quantum simulation of materials; please cite
         "P. Giannozzi et al., J. Phys.:Condens. Matter 21 395502 (2009);
         "P. Giannozzi et al., J. Phys.:Condens. Matter 29 465901 (2017);
         "P. Giannozzi et al., J. Chem. Phys. 152 154105 (2020);
          URL http://www.quantum-espresso.org", 
     in publications or presentations arising from this work. More details at
     http://www.quantum-espresso.org/quote

     Parallel version (MPI), running on    10 processors

     MPI processes distributed on     1 nodes
     R & G space division:  proc/nbgrp/npool/nimage =      10
     71058 MiB available memory on the printing compute node when the environment starts
 
     Waiting for input...
     Reading input from standard input

     Current dimensions of program PWSCF are:
     Max number of different atomic species (ntypx) = 10
     Max number of k-points (npk) =  40000
     Max angular momentum in pseudopotentials (lmaxx) =  4
     file Zr.pbe-spn-kjpaw_psl.1.0.0.UPF: wavefunction(s)  4S 4P renormalized
     file Te.pbe-n-kjpaw_psl.1.0.0.UPF: wavefunction(s)  5S 5P renormalized
     Message from routine setup:
     using ibrav=0 with symmetry is DISCOURAGED, use correct ibrav instead

     Subspace diagonalization in iterative solution of the eigenvalue problem:
     a serial algorithm will be used

 
     Parallelization info
     --------------------
     sticks:   dense  smooth     PW     G-vecs:    dense   smooth      PW
     Min         734     293     87               115340    29174    4753
     Max         735     295     88               115345    29176    4760
     Sum        7345    2937    873              1153415   291749   47557
 
     Using Slab Decomposition
 


     bravais-lattice index     =            0
     lattice parameter (alat)  =      15.5510  a.u.
     unit-cell volume          =    3018.5011 (a.u.)^3
     number of atoms/cell      =           12
     number of atomic types    =            2
     number of electrons       =        84.00
     number of Kohn-Sham states=           50
     kinetic-energy cutoff     =      80.0000  Ry
     charge density cutoff     =     800.0000  Ry
     scf convergence threshold =      1.0E-10
     mixing beta               =       0.7000
     number of iterations used =            8  plain     mixing
     Exchange-correlation= SLA  PW   PBX  PBC
                           (   1   4   3   4   0   0   0)

     celldm(1)=  15.551040  celldm(2)=   0.000000  celldm(3)=   0.000000
     celldm(4)=   0.000000  celldm(5)=   0.000000  celldm(6)=   0.000000

     crystal axes: (cart. coord. in units of alat)
               a(1) = (   0.246007  -0.969268   0.000000 )  
               a(2) = (   0.246007   0.969268   0.000000 )  
               a(3) = (   0.000000   0.000000   1.683031 )  

     reciprocal axes: (cart. coord. in units 2 pi/alat)
               b(1) = (  2.032465 -0.515853  0.000000 )  
               b(2) = (  2.032465  0.515853  0.000000 )  
               b(3) = (  0.000000  0.000000  0.594166 )  


     PseudoPot. # 1 for Zr read from file:
     pseudo/Zr.pbe-spn-kjpaw_psl.1.0.0.UPF
     MD5 check sum: 02112c41713a0468aff2bb39ef194e36
     Pseudo is Projector augmented-wave + core cor, Zval = 12.0
     Generated using &quot;atomic&quot; code by A. Dal Corso  v.6.2.2
     Shape of augmentation charge: PSQ
     Using radial grid of 1225 points,  6 beta functions with: 
                l(1) =   0
                l(2) =   0
                l(3) =   1
                l(4) =   1
                l(5) =   2
                l(6) =   2
     Q(r) pseudized with 0 coefficients 


     PseudoPot. # 2 for Te read from file:
     pseudo/Te.pbe-n-kjpaw_psl.1.0.0.UPF
     MD5 check sum: 66247bff2bd9dbf220fbb0bf5ab56e9d
     Pseudo is Projector augmented-wave + core cor, Zval =  6.0
     Generated using &quot;atomic&quot; code by A. Dal Corso  v.6.3
     Shape of augmentation charge: PSQ
     Using radial grid of 1245 points,  6 beta functions with: 
                l(1) =   0
                l(2) =   0
                l(3) =   1
                l(4) =   1
                l(5) =   2
                l(6) =   2
     Q(r) pseudized with 0 coefficients 


     atomic species   valence    mass     pseudopotential
        Zr            12.00    91.22000     Zr( 1.00)
        Te             6.00   127.60000     Te( 1.00)

      8 Sym. Ops., with inversion, found ( 4 have fractional translation)



   Cartesian axes

     site n.     atom                  positions (alat units)
         1           Zr  tau(   1) = (   0.0000000   0.5971543   0.4207578  )
         2           Zr  tau(   2) = (   0.2460067   0.3721138   1.2622733  )
         3           Te  tau(   3) = (   0.2460067   0.3340785   0.4207578  )
         4           Te  tau(   4) = (   0.0000000   0.6351896   1.2622733  )
         5           Te  tau(   5) = (   0.2460067   0.8136736   0.2546899  )
         6           Te  tau(   6) = (   0.0000000   0.1555945   1.4283412  )
         7           Te  tau(   7) = (   0.2460067   0.8136736   0.5868256  )
         8           Te  tau(   8) = (   0.0000000   0.1555945   1.0962054  )
         9           Te  tau(   9) = (   0.0000000   0.4297004   0.7450108  )
        10           Te  tau(  10) = (   0.2460067   0.5395677   0.9380202  )
        11           Te  tau(  11) = (   0.0000000   0.4297004   0.0965047  )
        12           Te  tau(  12) = (   0.2460067   0.5395677   1.5865264  )

     number of k points=    63  Methfessel-Paxton smearing, width (Ry)=  0.0030
                       cart. coord. in units 2pi/alat
        k(    1) = (   0.0000000   0.0000000   0.0000000), wk =   0.0078125
        k(    2) = (   0.0000000   0.0000000   0.1485415), wk =   0.0156250
        k(    3) = (   0.0000000   0.0000000  -0.2970830), wk =   0.0078125
        k(    4) = (   0.2540581   0.0644816   0.0000000), wk =   0.0312500
        k(    5) = (   0.2540581   0.0644816   0.1485415), wk =   0.0625000
        k(    6) = (   0.2540581   0.0644816  -0.2970830), wk =   0.0312500
        k(    7) = (   0.5081162   0.1289633   0.0000000), wk =   0.0312500
        k(    8) = (   0.5081162   0.1289633   0.1485415), wk =   0.0625000
        k(    9) = (   0.5081162   0.1289633  -0.2970830), wk =   0.0312500
        k(   10) = (   0.7621743   0.1934449   0.0000000), wk =   0.0312500
        k(   11) = (   0.7621743   0.1934449   0.1485415), wk =   0.0625000
        k(   12) = (   0.7621743   0.1934449  -0.2970830), wk =   0.0312500
        k(   13) = (  -1.0162324  -0.2579266   0.0000000), wk =   0.0156250
        k(   14) = (  -1.0162324  -0.2579266   0.1485415), wk =   0.0312500
        k(   15) = (  -1.0162324  -0.2579266  -0.2970830), wk =   0.0156250
        k(   16) = (   0.5081162   0.0000000   0.0000000), wk =   0.0156250
        k(   17) = (   0.5081162   0.0000000   0.1485415), wk =   0.0312500
        k(   18) = (   0.5081162   0.0000000  -0.2970830), wk =   0.0156250
        k(   19) = (   0.7621743   0.0644816   0.0000000), wk =   0.0312500
        k(   20) = (   0.7621743   0.0644816   0.1485415), wk =   0.0625000
        k(   21) = (   0.7621743   0.0644816  -0.2970830), wk =   0.0312500
        k(   22) = (   1.0162324   0.1289633   0.0000000), wk =   0.0312500
        k(   23) = (   1.0162324   0.1289633   0.1485415), wk =   0.0625000
        k(   24) = (   1.0162324   0.1289633  -0.2970830), wk =   0.0312500
        k(   25) = (  -0.7621743  -0.3224082   0.0000000), wk =   0.0312500
        k(   26) = (  -0.7621743  -0.3224082   0.1485415), wk =   0.0625000
        k(   27) = (  -0.7621743  -0.3224082  -0.2970830), wk =   0.0312500
        k(   28) = (  -0.5081162  -0.2579266   0.0000000), wk =   0.0312500
        k(   29) = (  -0.5081162  -0.2579266   0.1485415), wk =   0.0625000
        k(   30) = (  -0.5081162  -0.2579266  -0.2970830), wk =   0.0312500
        k(   31) = (  -0.2540581  -0.1934449   0.0000000), wk =   0.0312500
        k(   32) = (  -0.2540581  -0.1934449   0.1485415), wk =   0.0625000
        k(   33) = (  -0.2540581  -0.1934449  -0.2970830), wk =   0.0312500
        k(   34) = (   0.0000000  -0.1289633   0.0000000), wk =   0.0156250
        k(   35) = (   0.0000000  -0.1289633   0.1485415), wk =   0.0312500
        k(   36) = (   0.0000000  -0.1289633  -0.2970830), wk =   0.0156250
        k(   37) = (   1.0162324   0.0000000   0.0000000), wk =   0.0156250
        k(   38) = (   1.0162324   0.0000000   0.1485415), wk =   0.0312500
        k(   39) = (   1.0162324   0.0000000  -0.2970830), wk =   0.0156250
        k(   40) = (   1.2702905   0.0644816   0.0000000), wk =   0.0312500
        k(   41) = (   1.2702905   0.0644816   0.1485415), wk =   0.0625000
        k(   42) = (   1.2702905   0.0644816  -0.2970830), wk =   0.0312500
        k(   43) = (  -0.5081162  -0.3868899   0.0000000), wk =   0.0312500
        k(   44) = (  -0.5081162  -0.3868899   0.1485415), wk =   0.0625000
        k(   45) = (  -0.5081162  -0.3868899  -0.2970830), wk =   0.0312500
        k(   46) = (  -0.2540581  -0.3224082   0.0000000), wk =   0.0312500
        k(   47) = (  -0.2540581  -0.3224082   0.1485415), wk =   0.0625000
        k(   48) = (  -0.2540581  -0.3224082  -0.2970830), wk =   0.0312500
        k(   49) = (   0.0000000  -0.2579266   0.0000000), wk =   0.0156250
        k(   50) = (   0.0000000  -0.2579266   0.1485415), wk =   0.0312500
        k(   51) = (   0.0000000  -0.2579266  -0.2970830), wk =   0.0156250
        k(   52) = (   1.5243485   0.0000000   0.0000000), wk =   0.0156250
        k(   53) = (   1.5243485   0.0000000   0.1485415), wk =   0.0312500
        k(   54) = (   1.5243485   0.0000000  -0.2970830), wk =   0.0156250
        k(   55) = (  -0.2540581  -0.4513715   0.0000000), wk =   0.0312500
        k(   56) = (  -0.2540581  -0.4513715   0.1485415), wk =   0.0625000
        k(   57) = (  -0.2540581  -0.4513715  -0.2970830), wk =   0.0312500
        k(   58) = (   0.0000000  -0.3868899   0.0000000), wk =   0.0156250
        k(   59) = (   0.0000000  -0.3868899   0.1485415), wk =   0.0312500
        k(   60) = (   0.0000000  -0.3868899  -0.2970830), wk =   0.0156250
        k(   61) = (  -2.0324647   0.0000000   0.0000000), wk =   0.0078125
        k(   62) = (  -2.0324647   0.0000000   0.1485415), wk =   0.0156250
        k(   63) = (  -2.0324647   0.0000000  -0.2970830), wk =   0.0078125

     Dense  grid:  1153415 G-vectors     FFT dimensions: ( 144, 144, 240)

     Smooth grid:   291749 G-vectors     FFT dimensions: (  90,  90, 150)

     Estimated max dynamical RAM per process >     657.19 MB

     Estimated total dynamical RAM >       6.42 GB

     Initial potential from superposition of free atoms

     starting charge   83.99353, renormalised to   84.00000
     Starting wfcs are   66 randomized atomic wfcs
     Checking if some PAW data can be deallocated... 

     total cpu time spent up to now is       19.6 secs

     Self-consistent Calculation

     iteration #  1     ecut=    80.00 Ry     beta= 0.70
     Davidson diagonalization with overlap
     ethr =  1.00E-02,  avg # of iterations =  2.2

     Threshold (ethr) on eigenvalues was too large:
     Diagonalizing with lowered threshold

     Davidson diagonalization with overlap
     ethr =  4.98E-04,  avg # of iterations =  3.9

     total cpu time spent up to now is      100.8 secs

     total energy              =   -4240.66030076 Ry
     estimated scf accuracy    <       0.46424419 Ry

     iteration #  2     ecut=    80.00 Ry     beta= 0.70
     Davidson diagonalization with overlap
     ethr =  5.53E-04,  avg # of iterations =  8.3

     total cpu time spent up to now is      163.1 secs

     total energy              =   -4240.54308745 Ry
     estimated scf accuracy    <       2.09898691 Ry

     iteration #  3     ecut=    80.00 Ry     beta= 0.70
     Davidson diagonalization with overlap
     ethr =  5.53E-04,  avg # of iterations =  5.3

     total cpu time spent up to now is      213.1 secs

     total energy              =   -4240.88668167 Ry
     estimated scf accuracy    <       0.00805881 Ry

     iteration #  4     ecut=    80.00 Ry     beta= 0.70
     Davidson diagonalization with overlap
     c_bands:  2 eigenvalues not converged
     c_bands:  1 eigenvalues not converged
     c_bands:  2 eigenvalues not converged
     c_bands:  2 eigenvalues not converged
     c_bands:  1 eigenvalues not converged
     c_bands:  2 eigenvalues not converged
     c_bands:  2 eigenvalues not converged
     c_bands:  2 eigenvalues not converged
     c_bands:  3 eigenvalues not converged
     c_bands:  1 eigenvalues not converged
     c_bands:  1 eigenvalues not converged
     c_bands:  1 eigenvalues not converged
     c_bands:  1 eigenvalues not converged
     c_bands:  1 eigenvalues not converged
     c_bands:  2 eigenvalues not converged
     ethr =  9.59E-06,  avg # of iterations = 16.7

     total cpu time spent up to now is      306.5 secs

     total energy              =   -4240.89544683 Ry
     estimated scf accuracy    <       0.03096907 Ry

     iteration #  5     ecut=    80.00 Ry     beta= 0.70
     Davidson diagonalization with overlap
     ethr =  9.59E-06,  avg # of iterations =  6.5

     total cpu time spent up to now is      356.6 secs

     total energy              =   -4240.89712748 Ry
     estimated scf accuracy    <       0.00531130 Ry

     iteration #  6     ecut=    80.00 Ry     beta= 0.70
     Davidson diagonalization with overlap
     ethr =  6.32E-06,  avg # of iterations =  4.1

     total cpu time spent up to now is      397.7 secs

     total energy              =   -4240.89761440 Ry
     estimated scf accuracy    <       0.00087229 Ry

     iteration #  7     ecut=    80.00 Ry     beta= 0.70
     Davidson diagonalization with overlap
     ethr =  1.04E-06,  avg # of iterations =  8.3

     total cpu time spent up to now is      457.1 secs

     total energy              =   -4240.89799351 Ry
     estimated scf accuracy    <       0.00066658 Ry

     iteration #  8     ecut=    80.00 Ry     beta= 0.70
     Davidson diagonalization with overlap
     ethr =  7.94E-07,  avg # of iterations =  2.0

     total cpu time spent up to now is      492.1 secs

     total energy              =   -4240.89801499 Ry
     estimated scf accuracy    <       0.00009900 Ry

     iteration #  9     ecut=    80.00 Ry     beta= 0.70
     Davidson diagonalization with overlap
     ethr =  1.18E-07,  avg # of iterations =  6.2

     total cpu time spent up to now is      541.3 secs

     total energy              =   -4240.89804635 Ry
     estimated scf accuracy    <       0.00000971 Ry

     iteration # 10     ecut=    80.00 Ry     beta= 0.70
     Davidson diagonalization with overlap
     ethr =  1.16E-08,  avg # of iterations =  4.6

     total cpu time spent up to now is      584.0 secs

     total energy              =   -4240.89804887 Ry
     estimated scf accuracy    <       0.00000053 Ry

     iteration # 11     ecut=    80.00 Ry     beta= 0.70
     Davidson diagonalization with overlap
     ethr =  6.31E-10,  avg # of iterations =  7.8

     total cpu time spent up to now is      644.7 secs

     total energy              =   -4240.89804938 Ry
     estimated scf accuracy    <       0.00000023 Ry

     iteration # 12     ecut=    80.00 Ry     beta= 0.70
     Davidson diagonalization with overlap
     ethr =  2.74E-10,  avg # of iterations =  2.7

     total cpu time spent up to now is      682.8 secs

     total energy              =   -4240.89804941 Ry
     estimated scf accuracy    <       0.00000001 Ry

     iteration # 13     ecut=    80.00 Ry     beta= 0.70
     Davidson diagonalization with overlap
     ethr =  1.37E-11,  avg # of iterations =  8.8

     total cpu time spent up to now is      746.7 secs

     total energy              =   -4240.89804942 Ry
     estimated scf accuracy    <       0.00000002 Ry

     iteration # 14     ecut=    80.00 Ry     beta= 0.70
     Davidson diagonalization with overlap
     ethr =  1.37E-11,  avg # of iterations =  2.2

     total cpu time spent up to now is      783.5 secs

     total energy              =   -4240.89804942 Ry
     estimated scf accuracy    <          2.9E-09 Ry

     iteration # 15     ecut=    80.00 Ry     beta= 0.70
     Davidson diagonalization with overlap
     ethr =  3.48E-12,  avg # of iterations =  6.2

     total cpu time spent up to now is      834.4 secs

     total energy              =   -4240.89804942 Ry
     estimated scf accuracy    <          8.7E-10 Ry

     iteration # 16     ecut=    80.00 Ry     beta= 0.70
     Davidson diagonalization with overlap
     ethr =  1.03E-12,  avg # of iterations =  1.8

     total cpu time spent up to now is      869.0 secs

     total energy              =   -4240.89804942 Ry
     estimated scf accuracy    <          3.1E-10 Ry

     iteration # 17     ecut=    80.00 Ry     beta= 0.70
     Davidson diagonalization with overlap
     ethr =  3.66E-13,  avg # of iterations =  5.1

     total cpu time spent up to now is      913.0 secs

     End of self-consistent calculation

          k = 0.0000 0.0000 0.0000 ( 36359 PWs)   bands (ev):

   -44.1666 -44.1665 -22.2720 -22.2720 -22.1842 -22.1842 -22.1076 -22.1074
    -8.5989  -8.4695  -7.1406  -7.0165  -5.9444  -5.3789  -4.7516  -4.7029
    -4.5177  -3.6999   0.1236   0.8658   0.8713   1.1346   1.1862   1.3778
     1.4312   1.5169   2.2618   2.8497   2.9211   2.9244   3.1250   3.4622
     3.9649   4.0362   4.1462   4.1656   4.3360   4.4394   4.5822   4.6253
     4.7918   5.0305   5.6049   5.7709   5.8231   5.9837   6.2425   6.5495
     7.2182   7.2478

          k = 0.0000 0.0000 0.1485 ( 36415 PWs)   bands (ev):

   -44.1666 -44.1666 -22.2720 -22.2720 -22.1842 -22.1842 -22.1076 -22.1075
    -8.5818  -8.4907  -7.1187  -7.0313  -5.8892  -5.5114  -4.7405  -4.7090
    -4.3578  -3.7996   0.2044   0.7944   0.9231   0.9920   1.1464   1.3852
     1.4229   1.8229   1.9789   2.8611   2.9116   2.9247   3.3241   3.5372
     3.8759   4.0768   4.1276   4.1650   4.3425   4.4084   4.5411   4.6780
     4.7236   4.7783   5.7701   5.8194   5.8197   6.2070   6.3597   6.4407
     7.0074   7.0492

          k = 0.0000 0.0000-0.2971 ( 36410 PWs)   bands (ev):

   -44.1666 -44.1666 -22.2720 -22.2720 -22.1842 -22.1842 -22.1075 -22.1075
    -8.5383  -8.5383  -7.0715  -7.0715  -5.7310  -5.7310  -4.7238  -4.7238
    -4.0549  -4.0549   0.4389   0.4389   1.0134   1.0134   1.3795   1.3795
     1.4036   1.4036   2.4693   2.4693   2.8873   2.8873   3.6795   3.6795
     3.9087   3.9087   4.1900   4.1900   4.2560   4.2560   4.5307   4.5307
     4.7395   4.7395   5.8016   5.8016   6.1452   6.1452   6.6372   6.6372
     6.6541   6.6541

          k = 0.2541 0.0645 0.0000 ( 36396 PWs)   bands (ev):

   -44.1662 -44.1662 -22.2701 -22.2700 -22.1936 -22.1936 -22.1066 -22.1064
    -8.4669  -8.3386  -7.0791  -6.9662  -5.8892  -5.3303  -4.7073  -4.6573
    -4.6038  -3.9172   0.1868   0.5203   0.9658   0.9871   1.0259   1.3060
     1.3293   1.5661   1.7491   2.6148   2.6529   3.1135   3.3836   3.6816
     3.7604   3.8238   3.9270   3.9752   4.1176   4.3161   4.3333   4.4604
     4.5448   4.6721   5.9875   6.0235   6.1087   6.1849   6.3420   6.8173
     7.0819   7.2709

          k = 0.2541 0.0645 0.1485 ( 36423 PWs)   bands (ev):

   -44.1662 -44.1662 -22.2701 -22.2700 -22.1936 -22.1936 -22.1066 -22.1064
    -8.4500  -8.3596  -7.0591  -6.9797  -5.8342  -5.4618  -4.6990  -4.6636
    -4.4574  -3.9935   0.2537   0.5018   0.7930   0.9800   1.0346   1.2031
     1.3631   1.7164   1.9829   2.6182   2.6378   2.9035   3.4491   3.4932
     3.5232   3.9017   3.9961   4.0815   4.0960   4.2725   4.4669   4.5434
     4.5988   4.7588   5.9030   5.9503   6.1027   6.1643   6.2052   6.8802
     7.2026   7.2267

          k = 0.2541 0.0645-0.2971 ( 36436 PWs)   bands (ev):

   -44.1662 -44.1662 -22.2700 -22.2700 -22.1936 -22.1936 -22.1065 -22.1065
    -8.4068  -8.4068  -7.0162  -7.0162  -5.6778  -5.6778  -4.6812  -4.6812
    -4.1981  -4.1981   0.4108   0.4108   0.7526   0.7526   1.1309   1.1309
     1.5995   1.5995   2.4617   2.4617   2.6460   2.6460   3.3278   3.3278
     3.7249   3.7249   4.0551   4.0551   4.2169   4.2169   4.5119   4.5119
     4.8539   4.8539   5.7536   5.7536   6.1072   6.1072   6.5230   6.5230
     7.3284   7.3284

          k = 0.5081 0.1290 0.0000 ( 36499 PWs)   bands (ev):

   -44.1653 -44.1653 -22.2654 -22.2654 -22.2162 -22.2162 -22.1041 -22.1039
    -8.0774  -7.9520  -6.9315  -6.8432  -5.7429  -5.2060  -4.9642  -4.5870
    -4.5399  -4.5368  -0.2930   0.2100   0.7268   0.7715   1.1700   1.3282
     1.6212   1.6403   1.7290   2.0659   2.1342   2.5087   2.6670   3.4031
     3.4598   3.5459   3.6134   3.7544   3.7839   3.8596   4.0499   4.2877
     4.2898   4.7509   6.0602   6.2514   6.3593   6.6153   6.6842   7.1383
     7.3749   7.5304

          k = 0.5081 0.1290 0.1485 ( 36476 PWs)   bands (ev):

   -44.1653 -44.1653 -22.2654 -22.2654 -22.2162 -22.2162 -22.1041 -22.1040
    -8.0609  -7.9726  -6.9159  -6.8539  -5.6915  -5.3489  -4.8470  -4.6043
    -4.5689  -4.5156  -0.2309   0.1391   0.7175   0.8310   1.1390   1.1945
     1.4112   1.5994   1.9980   2.0869   2.2524   2.5655   2.9222   3.2878
     3.4531   3.5033   3.5663   3.7373   3.8054   3.8207   3.9368   4.2829
     4.3288   4.4554   6.3170   6.3903   6.4782   6.6144   6.7695   7.0206
     7.2425   7.5232

          k = 0.5081 0.1290-0.2971 ( 36466 PWs)   bands (ev):

   -44.1653 -44.1653 -22.2654 -22.2654 -22.2162 -22.2162 -22.1040 -22.1040
    -8.0188  -8.0188  -6.8825  -6.8825  -5.5480  -5.5480  -4.7057  -4.7057
    -4.5341  -4.5341  -0.0591  -0.0591   0.8728   0.8728   0.9918   0.9918
     1.4911   1.4911   2.0575   2.0575   2.6125   2.6125   3.1858   3.1858
     3.3787   3.3787   3.6083   3.6083   3.7931   3.7931   3.9917   3.9917
     4.3739   4.3739   6.5378   6.5378   6.5765   6.5765   6.9000   6.9000
     7.3394   7.3394

          k = 0.7622 0.1934 0.0000 ( 36521 PWs)   bands (ev):

   -44.1645 -44.1645 -22.2607 -22.2606 -22.2387 -22.2387 -22.1015 -22.1015
    -7.4580  -7.3311  -6.7913  -6.7120  -5.7824  -5.6648  -5.1574  -5.0884
    -4.4571  -4.4176  -0.4058  -0.0345   0.0369   0.8583   0.8830   1.3225
     1.4947   1.5907   2.0237   2.0680   2.2231   2.3466   2.4908   2.8262
     3.0542   3.1699   3.3417   3.4141   3.5472   3.6474   3.7060   3.7760
     3.9420   4.6085   6.3983   6.5419   6.6939   7.0015   7.0167   7.0680
     7.4150   7.6049

          k = 0.7622 0.1934 0.1485 ( 36503 PWs)   bands (ev):

   -44.1645 -44.1645 -22.2607 -22.2606 -22.2387 -22.2387 -22.1015 -22.1015
    -7.4418  -7.3527  -6.7772  -6.7218  -5.7622  -5.6786  -5.1513  -5.1032
    -4.4503  -4.4225  -0.3673  -0.1063   0.1438   0.7254   0.9216   1.2591
     1.5016   1.5832   1.9656   2.0120   2.2267   2.5320   2.7267   2.9156
     2.9683   3.0227   3.2672   3.3131   3.5028   3.5874   3.8210   3.9299
     4.0145   4.4712   6.2419   6.5112   6.8168   6.9739   7.0679   7.1752
     7.2612   7.6702

          k = 0.7622 0.1934-0.2971 ( 36522 PWs)   bands (ev):

   -44.1645 -44.1645 -22.2607 -22.2607 -22.2387 -22.2387 -22.1015 -22.1015
    -7.3999  -7.3999  -6.7475  -6.7475  -5.7172  -5.7172  -5.1316  -5.1316
    -4.4355  -4.4355  -0.2530  -0.2530   0.4178   0.4178   1.0685   1.0685
     1.5502   1.5502   1.9655   1.9655   2.4837   2.4837   2.8604   2.8604
     2.9357   2.9357   3.2426   3.2426   3.5837   3.5837   3.9703   3.9703
     4.1297   4.1297   6.5396   6.5396   6.5988   6.5988   7.1061   7.1061
     7.6313   7.6313

          k =-1.0162-0.2579 0.0000 ( 36506 PWs)   bands (ev):

   -44.1641 -44.1641 -22.2587 -22.2587 -22.2480 -22.2480 -22.1005 -22.1005
    -6.8241  -6.8021  -6.5301  -6.5271  -6.4990  -6.4864  -5.1054  -5.1049
    -4.3979  -4.3657  -0.2307  -0.2144   0.0722   0.0928   1.0155   1.0214
     1.4667   1.6509   2.1823   2.3319   2.3689   2.3957   2.7627   2.8583
     2.8910   2.9493   3.1652   3.1942   3.2669   3.3247   3.4259   3.5729
     4.0873   4.3210   6.7530   6.8140   6.9831   6.9907   7.1568   7.2616
     7.2622   7.3347

          k =-1.0162-0.2579 0.1485 ( 36506 PWs)   bands (ev):

   -44.1641 -44.1641 -22.2587 -22.2587 -22.2480 -22.2480 -22.1005 -22.1005
    -6.8161  -6.7996  -6.5664  -6.5600  -6.4658  -6.4604  -5.1042  -5.1039
    -4.3949  -4.3721  -0.3150  -0.3098   0.2336   0.2422   1.0127   1.0185
     1.4565   1.5839   2.1042   2.2605   2.3075   2.3817   2.6053   2.6503
     2.9165   2.9895   3.1486   3.2395   3.4441   3.5179   3.5806   3.6529
     4.1842   4.3280   6.4643   6.4865   6.6495   6.7274   7.2752   7.2790
     7.5160   7.5824

          k =-1.0162-0.2579-0.2971 ( 36528 PWs)   bands (ev):

   -44.1641 -44.1641 -22.2587 -22.2587 -22.2480 -22.2480 -22.1005 -22.1005
    -6.8022  -6.8022  -6.5850  -6.5850  -6.4468  -6.4468  -5.1030  -5.1030
    -4.3852  -4.3852  -0.3695  -0.3695   0.3763   0.3763   0.9955   0.9955
     1.4934   1.4934   2.0364   2.0364   2.3219   2.3219   2.7288   2.7288
     2.7736   2.7736   3.2348   3.2348   3.5993   3.5993   3.7396   3.7396
     4.3412   4.3412   6.1631   6.1631   6.5849   6.5849   7.2856   7.2856
     7.6633   7.6633

          k = 0.5081 0.0000 0.0000 ( 36503 PWs)   bands (ev):

   -44.1653 -44.1653 -22.2654 -22.2654 -22.2162 -22.2162 -22.1041 -22.1039
    -8.0785  -7.9522  -6.9314  -6.8434  -5.7402  -5.2050  -4.9622  -4.5795
    -4.5485  -4.5363  -0.2892   0.2032   0.7443   0.7657   1.1668   1.2920
     1.6089   1.6360   1.7115   2.0724   2.1304   2.4988   2.6726   3.4157
     3.4504   3.5820   3.6260   3.7670   3.7678   3.9032   4.0268   4.2921
     4.3252   4.7366   6.0668   6.2264   6.3863   6.5798   6.6319   7.1796
     7.3771   7.5633

          k = 0.5081 0.0000 0.1485 ( 36453 PWs)   bands (ev):

   -44.1653 -44.1653 -22.2654 -22.2654 -22.2162 -22.2162 -22.1041 -22.1040
    -8.0619  -7.9730  -6.9157  -6.8540  -5.6891  -5.3477  -4.8445  -4.6041
    -4.5656  -4.5202  -0.2279   0.1349   0.7238   0.8317   1.1435   1.1837
     1.3731   1.5781   1.9982   2.1061   2.2305   2.5569   2.9266   3.2994
     3.4773   3.4946   3.5800   3.7556   3.8051   3.8768   3.8868   4.3033
     4.3623   4.4302   6.3020   6.3952   6.4962   6.5747   6.7333   7.0564
     7.2502   7.5465

          k = 0.5081 0.0000-0.2971 ( 36452 PWs)   bands (ev):

   -44.1653 -44.1653 -22.2654 -22.2654 -22.2162 -22.2162 -22.1040 -22.1040
    -8.0196  -8.0196  -6.8823  -6.8823  -5.5463  -5.5463  -4.7032  -4.7032
    -4.5358  -4.5358  -0.0586  -0.0586   0.8697   0.8697   0.9957   0.9957
     1.4591   1.4591   2.0631   2.0631   2.6001   2.6001   3.1977   3.1977
     3.3896   3.3896   3.6072   3.6072   3.8258   3.8258   3.9706   3.9706
     4.3902   4.3902   6.5350   6.5350   6.5570   6.5570   6.9165   6.9165
     7.3457   7.3457

          k = 0.7622 0.0645 0.0000 ( 36505 PWs)   bands (ev):

   -44.1645 -44.1645 -22.2607 -22.2606 -22.2387 -22.2387 -22.1015 -22.1015
    -7.4607  -7.3317  -6.7883  -6.7114  -5.7832  -5.6633  -5.1561  -5.0886
    -4.4450  -4.4302  -0.3982  -0.0265   0.0347   0.8500   0.9106   1.3350
     1.4716   1.5485   1.9890   2.0536   2.2571   2.3683   2.4418   2.8017
     3.0469   3.2039   3.3453   3.4268   3.6102   3.6633   3.7164   3.7655
     3.8632   4.6226   6.3970   6.5098   6.7270   6.9915   7.0261   7.0535
     7.4154   7.6614

          k = 0.7622 0.0645 0.1485 ( 36509 PWs)   bands (ev):

   -44.1645 -44.1645 -22.2607 -22.2606 -22.2387 -22.2387 -22.1015 -22.1015
    -7.4443  -7.3537  -6.7744  -6.7207  -5.7628  -5.6777  -5.1503  -5.1031
    -4.4418  -4.4314  -0.3598  -0.0991   0.1411   0.7170   0.9462   1.2698
     1.4779   1.5776   1.9338   1.9634   2.2382   2.5254   2.7310   2.9031
     2.9798   3.0132   3.2918   3.3201   3.5431   3.5760   3.8160   3.9639
     3.9684   4.4605   6.2669   6.4859   6.8378   6.9715   7.0464   7.1980
     7.2450   7.7120

          k = 0.7622 0.0645-0.2971 ( 36472 PWs)   bands (ev):

   -44.1645 -44.1645 -22.2607 -22.2607 -22.2387 -22.2387 -22.1015 -22.1015
    -7.4018  -7.4018  -6.7453  -6.7453  -5.7172  -5.7172  -5.1310  -5.1310
    -4.4356  -4.4356  -0.2457  -0.2457   0.4124   0.4124   1.0847   1.0847
     1.5467   1.5467   1.9137   1.9137   2.4953   2.4953   2.8634   2.8634
     2.9098   2.9098   3.2842   3.2842   3.5804   3.5804   4.0067   4.0067
     4.0809   4.0809   6.5691   6.5691   6.5959   6.5959   7.0786   7.0786
     7.6605   7.6605

          k = 1.0162 0.1290 0.0000 ( 36514 PWs)   bands (ev):

   -44.1641 -44.1641 -22.2587 -22.2587 -22.2480 -22.2480 -22.1005 -22.1005
    -6.8242  -6.8021  -6.5301  -6.5271  -6.4989  -6.4865  -5.1054  -5.1050
    -4.3979  -4.3657  -0.2362  -0.2088   0.0704   0.0946   1.0058   1.0317
     1.4745   1.6397   2.1778   2.3401   2.3784   2.3854   2.7449   2.8925
     2.8976   2.9397   3.1509   3.1870   3.2786   3.3091   3.4380   3.5746
     4.0680   4.3405   6.7453   6.8270   6.9579   7.0154   7.1834   7.2615
     7.2638   7.3090

          k = 1.0162 0.1290 0.1485 ( 36524 PWs)   bands (ev):

   -44.1641 -44.1641 -22.2587 -22.2587 -22.2480 -22.2480 -22.1005 -22.1005
    -6.8161  -6.7996  -6.5664  -6.5600  -6.4658  -6.4604  -5.1042  -5.1039
    -4.3949  -4.3721  -0.3175  -0.3074   0.2346   0.2415   1.0082   1.0230
     1.4637   1.5763   2.1070   2.2475   2.3112   2.3843   2.6078   2.6564
     2.9003   3.0046   3.1504   3.2345   3.4521   3.4907   3.6040   3.6511
     4.1642   4.3477   6.4620   6.4965   6.6454   6.7287   7.2763   7.2792
     7.5217   7.5751

          k = 1.0162 0.1290-0.2971 ( 36516 PWs)   bands (ev):

   -44.1641 -44.1641 -22.2587 -22.2587 -22.2480 -22.2480 -22.1005 -22.1005
    -6.8022  -6.8022  -6.5850  -6.5850  -6.4468  -6.4468  -5.1030  -5.1030
    -4.3852  -4.3852  -0.3696  -0.3696   0.3766   0.3766   0.9952   0.9952
     1.4946   1.4946   2.0360   2.0360   2.3197   2.3197   2.7109   2.7109
     2.7956   2.7956   3.2302   3.2302   3.6010   3.6010   3.7393   3.7393
     4.3421   4.3421   6.1666   6.1666   6.5838   6.5838   7.2862   7.2862
     7.6615   7.6615

          k =-0.7622-0.3224 0.0000 ( 36511 PWs)   bands (ev):

   -44.1645 -44.1645 -22.2607 -22.2606 -22.2387 -22.2387 -22.1015 -22.1015
    -7.4541  -7.3303  -6.7957  -6.7125  -5.7814  -5.6668  -5.1592  -5.0881
    -4.4664  -4.4076  -0.4163  -0.0444   0.0387   0.8511   0.8699   1.3072
     1.5015   1.6673   2.0870   2.0907   2.2120   2.3148   2.4863   2.8650
     3.0598   3.1609   3.3357   3.3961   3.5147   3.6079   3.6930   3.7140
     4.0825   4.5823   6.4001   6.5871   6.6628   6.9252   7.0533   7.1411
     7.4047   7.5289

          k =-0.7622-0.3224 0.1485 ( 36492 PWs)   bands (ev):

   -44.1645 -44.1645 -22.2607 -22.2607 -22.2387 -22.2387 -22.1015 -22.1015
    -7.4383  -7.3513  -6.7814  -6.7232  -5.7613  -5.6799  -5.1528  -5.1033
    -4.4568  -4.4155  -0.3778  -0.1161   0.1471   0.7372   0.8927   1.2436
     1.5228   1.6009   2.0136   2.0805   2.2210   2.5299   2.6950   2.9396
     2.9711   3.0428   3.2466   3.2886   3.4729   3.5730   3.8057   3.8806
     4.1026   4.4843   6.2097   6.5501   6.7810   6.9726   7.0842   7.1833
     7.2822   7.5922

          k =-0.7622-0.3224-0.2971 ( 36508 PWs)   bands (ev):

   -44.1645 -44.1645 -22.2607 -22.2607 -22.2387 -22.2387 -22.1015 -22.1015
    -7.3973  -7.3973  -6.7505  -6.7505  -5.7172  -5.7172  -5.1325  -5.1325
    -4.4354  -4.4354  -0.2631  -0.2631   0.4248   0.4248   1.0489   1.0489
     1.5569   1.5569   2.0318   2.0318   2.4755   2.4755   2.8585   2.8585
     2.9693   2.9693   3.1875   3.1875   3.5812   3.5812   3.9227   3.9227
     4.1953   4.1953   6.5063   6.5063   6.5974   6.5974   7.1493   7.1493
     7.5630   7.5632

          k =-0.5081-0.2579 0.0000 ( 36480 PWs)   bands (ev):

   -44.1653 -44.1653 -22.2654 -22.2654 -22.2162 -22.2162 -22.1041 -22.1039
    -8.0748  -7.9513  -6.9319  -6.8423  -5.7496  -5.2084  -4.9690  -4.5979
    -4.5381  -4.5264  -0.3021   0.2262   0.7024   0.7685   1.1778   1.4238
     1.6487   1.6512   1.7787   2.0524   2.1332   2.5290   2.6518   3.3478
     3.4873   3.4927   3.6014   3.6944   3.7753   3.8009   4.1156   4.2036
     4.2758   4.7814   6.0468   6.2768   6.3307   6.7055   6.8121   7.0442
     7.3669   7.4599

          k =-0.5081-0.2579 0.1485 ( 36485 PWs)   bands (ev):

   -44.1653 -44.1653 -22.2654 -22.2654 -22.2162 -22.2162 -22.1041 -22.1040
    -8.0585  -7.9716  -6.9164  -6.8534  -5.6973  -5.3516  -4.8531  -4.6050
    -4.5747  -4.5068  -0.2381   0.1490   0.7052   0.8260   1.1336   1.2192
     1.5085   1.6590   1.9849   2.0576   2.2931   2.5826   2.9100   3.2454
     3.4071   3.5201   3.5416   3.6880   3.7470   3.7862   4.0242   4.2172
     4.2859   4.4935   6.3491   6.3592   6.4581   6.7047   6.8619   6.9488
     7.2169   7.4743

          k =-0.5081-0.2579-0.2971 ( 36478 PWs)   bands (ev):

   -44.1653 -44.1653 -22.2654 -22.2654 -22.2162 -22.2162 -22.1040 -22.1040
    -8.0170  -8.0170  -6.8828  -6.8828  -5.5520  -5.5520  -4.7117  -4.7117
    -4.5301  -4.5301  -0.0603  -0.0603   0.8802   0.8802   0.9827   0.9827
     1.5767   1.5767   2.0376   2.0376   2.6493   2.6493   3.1379   3.1379
     3.3588   3.3588   3.6073   3.6073   3.7280   3.7280   4.0359   4.0359
     4.3380   4.3380   6.5085   6.5085   6.6536   6.6536   6.8635   6.8635
     7.3305   7.3305

          k =-0.2541-0.1934 0.0000 ( 36410 PWs)   bands (ev):

   -44.1662 -44.1662 -22.2701 -22.2700 -22.1936 -22.1936 -22.1066 -22.1064
    -8.4650  -8.3382  -7.0765  -6.9644  -5.9000  -5.3355  -4.7245  -4.6479
    -4.5987  -3.9178   0.2084   0.5143   0.9703   0.9910   1.0859   1.3307
     1.3590   1.6201   1.7595   2.5858   2.6422   3.1206   3.4310   3.6601
     3.7427   3.7664   3.9167   3.9225   3.9714   4.2304   4.2746   4.4278
     4.4908   4.7121   6.0389   6.0824   6.1648   6.2123   6.3724   6.8668
     7.0409   7.2066

          k =-0.2541-0.1934 0.1485 ( 36427 PWs)   bands (ev):

   -44.1662 -44.1662 -22.2701 -22.2700 -22.1936 -22.1936 -22.1066 -22.1064
    -8.4483  -8.3589  -7.0568  -6.9781  -5.8439  -5.4675  -4.7126  -4.6550
    -4.4558  -3.9937   0.2756   0.4996   0.7918   1.0092   1.0906   1.2281
     1.3867   1.7269   2.0205   2.5861   2.6323   2.9137   3.4542   3.4892
     3.5712   3.8378   3.8964   3.9174   4.0633   4.2343   4.4318   4.4793
     4.5729   4.7969   5.9192   5.9393   6.1496   6.2384   6.2766   6.8695
     7.1832   7.2067

          k =-0.2541-0.1934-0.2971 ( 36422 PWs)   bands (ev):

   -44.1662 -44.1662 -22.2700 -22.2700 -22.1936 -22.1936 -22.1065 -22.1065
    -8.4056  -8.4056  -7.0145  -7.0145  -5.6853  -5.6853  -4.6837  -4.6837
    -4.1974  -4.1974   0.4251   0.4251   0.7624   0.7624   1.1782   1.1782
     1.6114   1.6114   2.4712   2.4712   2.6442   2.6442   3.3260   3.3260
     3.7597   3.7597   3.8715   3.8715   4.1929   4.1929   4.4575   4.4575
     4.8702   4.8702   5.7418   5.7418   6.1800   6.1800   6.5317   6.5317
     7.3167   7.3167

          k = 0.0000-0.1290 0.0000 ( 36417 PWs)   bands (ev):

   -44.1666 -44.1666 -22.2720 -22.2720 -22.1842 -22.1842 -22.1076 -22.1074
    -8.5979  -8.4693  -7.1386  -7.0153  -5.9514  -5.3826  -4.7605  -4.6958
    -4.5177  -3.7001   0.1366   0.8673   0.9120   1.1466   1.1981   1.3775
     1.4309   1.5518   2.2577   2.8565   2.9233   2.9255   3.1261   3.5009
     3.9686   4.0148   4.0245   4.0269   4.2845   4.4398   4.5383   4.6111
     4.7902   5.0176   5.6213   5.8169   5.8779   6.0104   6.2508   6.5674
     7.1986   7.2184

          k = 0.0000-0.1290 0.1485 ( 36419 PWs)   bands (ev):

   -44.1666 -44.1666 -22.2720 -22.2720 -22.1842 -22.1842 -22.1076 -22.1075
    -8.5810  -8.4903  -7.1169  -7.0302  -5.8956  -5.5153  -4.7483  -4.7032
    -4.3578  -3.7996   0.2184   0.8159   0.9504   0.9966   1.1685   1.3849
     1.4226   1.8304   1.9935   2.8677   2.9164   2.9303   3.3113   3.5782
     3.8891   3.9937   4.0288   4.0655   4.3366   4.3517   4.5093   4.6706
     4.7114   4.7764   5.8025   5.8456   5.8712   6.2135   6.3667   6.4594
     7.0065   7.0090

          k = 0.0000-0.1290-0.2971 ( 36464 PWs)   bands (ev):

   -44.1666 -44.1666 -22.2720 -22.2720 -22.1842 -22.1842 -22.1075 -22.1075
    -8.5376  -8.5376  -7.0701  -7.0701  -5.7361  -5.7361  -4.7250  -4.7250
    -4.0548  -4.0548   0.4553   0.4553   1.0402   1.0402   1.3828   1.3828
     1.4033   1.4033   2.4830   2.4830   2.8930   2.8930   3.6920   3.6920
     3.8668   3.8668   4.1551   4.1551   4.1803   4.1803   4.4995   4.4995
     4.7363   4.7363   5.8441   5.8441   6.1611   6.1611   6.6190   6.6190
     6.6583   6.6583

          k = 1.0162 0.0000 0.0000 ( 36499 PWs)   bands (ev):

   -44.1641 -44.1641 -22.2587 -22.2587 -22.2480 -22.2480 -22.1005 -22.1005
    -6.8242  -6.8021  -6.5301  -6.5271  -6.4988  -6.4866  -5.1054  -5.1050
    -4.3979  -4.3657  -0.2400  -0.2048   0.0688   0.0962   1.0010   1.0370
     1.4836   1.6271   2.1737   2.3574   2.3660   2.3875   2.7330   2.9139
     2.9205   2.9241   3.1151   3.2193   3.2792   3.2830   3.4503   3.5762
     4.0513   4.3575   6.7394   6.8384   6.9460   7.0267   7.2428   7.2507
     7.2617   7.2652

          k = 1.0162 0.0000 0.1485 ( 36485 PWs)   bands (ev):

   -44.1641 -44.1641 -22.2587 -22.2587 -22.2480 -22.2480 -22.1005 -22.1005
    -6.8162  -6.7996  -6.5664  -6.5600  -6.4657  -6.4605  -5.1042  -5.1039
    -4.3949  -4.3721  -0.3193  -0.3059   0.2359   0.2406   1.0057   1.0255
     1.4721   1.5675   2.1101   2.2348   2.3169   2.3839   2.6139   2.6585
     2.8890   3.0155   3.1529   3.2284   3.4609   3.4723   3.6144   3.6526
     4.1479   4.3639   6.4615   6.5051   6.6416   6.7297   7.2774   7.2794
     7.5301   7.5652

          k = 1.0162 0.0000-0.2971 ( 36514 PWs)   bands (ev):

   -44.1641 -44.1641 -22.2587 -22.2587 -22.2480 -22.2480 -22.1005 -22.1005
    -6.8022  -6.8022  -6.5850  -6.5850  -6.4468  -6.4468  -5.1030  -5.1030
    -4.3852  -4.3852  -0.3697  -0.3697   0.3768   0.3768   0.9950   0.9950
     1.4959   1.4959   2.0355   2.0355   2.3176   2.3176   2.6995   2.6995
     2.8112   2.8112   3.2255   3.2255   3.6028   3.6028   3.7391   3.7391
     4.3431   4.3431   6.1701   6.1701   6.5827   6.5827   7.2867   7.2867
     7.6594   7.6594

          k = 1.2703 0.0645 0.0000 ( 36468 PWs)   bands (ev):

   -44.1645 -44.1645 -22.2607 -22.2606 -22.2387 -22.2387 -22.1015 -22.1015
    -7.4513  -7.3297  -6.7990  -6.7128  -5.7807  -5.6683  -5.1604  -5.0879
    -4.4713  -4.4021  -0.4236  -0.0507   0.0392   0.8320   0.8780   1.2977
     1.5003   1.7239   2.1094   2.1277   2.2670   2.2906   2.4053   2.8972
     3.0587   3.1773   3.3511   3.3791   3.5127   3.5610   3.6572   3.6829
     4.1859   4.5540   6.4013   6.6160   6.6545   6.8696   7.0801   7.2143
     7.3792   7.4989

          k = 1.2703 0.0645 0.1485 ( 36490 PWs)   bands (ev):

   -44.1645 -44.1645 -22.2607 -22.2607 -22.2387 -22.2387 -22.1015 -22.1015
    -7.4357  -7.3503  -6.7845  -6.7240  -5.7608  -5.6809  -5.1539  -5.1034
    -4.4603  -4.4117  -0.3852  -0.1228   0.1491   0.7452   0.8753   1.2334
     1.5295   1.6197   2.0547   2.1129   2.2405   2.5199   2.6524   2.9629
     2.9766   3.0702   3.2352   3.2619   3.4768   3.5370   3.7886   3.8459
     4.1732   4.4909   6.1893   6.5809   6.7511   6.9690   7.0780   7.2359
     7.2874   7.5322

          k = 1.2703 0.0645-0.2971 ( 36480 PWs)   bands (ev):

   -44.1645 -44.1645 -22.2607 -22.2607 -22.2387 -22.2387 -22.1015 -22.1015
    -7.3954  -7.3954  -6.7527  -6.7527  -5.7171  -5.7171  -5.1331  -5.1331
    -4.4354  -4.4354  -0.2702  -0.2702   0.4295   0.4295   1.0371   1.0371
     1.5625   1.5625   2.0730   2.0730   2.4774   2.4774   2.8606   2.8606
     2.9840   2.9840   3.1558   3.1558   3.5737   3.5737   3.8894   3.8894
     4.2419   4.2419   6.4858   6.4858   6.5951   6.5951   7.1838   7.1839
     7.4953   7.4954

          k =-0.5081-0.3869 0.0000 ( 36463 PWs)   bands (ev):

   -44.1653 -44.1653 -22.2654 -22.2654 -22.2162 -22.2162 -22.1041 -22.1039
    -8.0721  -7.9507  -6.9327  -6.8409  -5.7563  -5.2108  -4.9738  -4.6050
    -4.5393  -4.5167  -0.3111   0.2421   0.6865   0.7575   1.1859   1.5447
     1.6592   1.6817   1.8155   2.0289   2.1502   2.5259   2.6341   3.2732
     3.4791   3.5245   3.5901   3.6012   3.7220   3.8058   4.1083   4.1917
     4.2629   4.8081   6.0360   6.2098   6.3970   6.8035   6.9533   6.9558
     7.3438   7.4145

          k =-0.5081-0.3869 0.1485 ( 36477 PWs)   bands (ev):

   -44.1653 -44.1653 -22.2654 -22.2654 -22.2162 -22.2162 -22.1041 -22.1040
    -8.0561  -7.9705  -6.9172  -6.8527  -5.7031  -5.3542  -4.8592  -4.6061
    -4.5786  -4.4996  -0.2451   0.1586   0.6960   0.8174   1.1324   1.2423
     1.6313   1.7312   1.9457   2.0257   2.3522   2.5744   2.8924   3.1943
     3.3591   3.5251   3.5440   3.6094   3.7383   3.7492   4.0932   4.1545
     4.2528   4.5262   6.2949   6.3959   6.4538   6.7950   6.8471   7.0131
     7.1752   7.4482

          k =-0.5081-0.3869-0.2971 ( 36492 PWs)   bands (ev):

   -44.1653 -44.1653 -22.2654 -22.2654 -22.2162 -22.2162 -22.1040 -22.1040
    -8.0152  -8.0152  -6.8831  -6.8831  -5.5560  -5.5560  -4.7175  -4.7175
    -4.5264  -4.5264  -0.0615  -0.0615   0.8880   0.8880   0.9737   0.9737
     1.6846   1.6846   1.9988   1.9988   2.7046   2.7046   3.0511   3.0511
     3.3496   3.3496   3.5978   3.5978   3.6849   3.6849   4.0660   4.0660
     4.3134   4.3134   6.4792   6.4792   6.7054   6.7054   6.8440   6.8440
     7.3422   7.3422

          k =-0.2541-0.3224 0.0000 ( 36485 PWs)   bands (ev):

   -44.1662 -44.1662 -22.2701 -22.2700 -22.1936 -22.1936 -22.1066 -22.1064
    -8.4624  -8.3376  -7.0732  -6.9613  -5.9153  -5.3428  -4.7440  -4.6352
    -4.5958  -3.9185   0.2337   0.5064   0.9775   0.9910   1.1983   1.3646
     1.4088   1.7095   1.7760   2.5240   2.5984   3.1583   3.5049   3.5872
     3.6254   3.6574   3.7971   3.9112   3.9761   4.1522   4.1809   4.3684
     4.4149   4.7719   6.0890   6.1508   6.1765   6.3188   6.4151   6.9341
     6.9640   7.1271

          k =-0.2541-0.3224 0.1485 ( 36445 PWs)   bands (ev):

   -44.1662 -44.1662 -22.2701 -22.2700 -22.1936 -22.1936 -22.1066 -22.1064
    -8.4459  -8.3579  -7.0540  -6.9753  -5.8578  -5.4753  -4.7272  -4.6472
    -4.4538  -3.9939   0.3018   0.4964   0.7900   1.0406   1.1822   1.2812
     1.4308   1.7504   2.0815   2.5264   2.5908   2.9483   3.4398   3.4698
     3.6351   3.6444   3.6940   3.9178   4.0195   4.1712   4.3725   4.4078
     4.5510   4.8446   5.9268   5.9360   6.1979   6.3095   6.3820   6.8206
     7.1759   7.1914

          k =-0.2541-0.3224-0.2971 ( 36442 PWs)   bands (ev):

   -44.1662 -44.1662 -22.2700 -22.2700 -22.1936 -22.1936 -22.1065 -22.1065
    -8.4038  -8.4038  -7.0121  -7.0121  -5.6958  -5.6958  -4.6872  -4.6872
    -4.1964  -4.1964   0.4417   0.4417   0.7739   0.7739   1.2604   1.2604
     1.6364   1.6364   2.4808   2.4808   2.6331   2.6331   3.3146   3.3146
     3.6325   3.6325   3.8312   3.8312   4.1365   4.1365   4.3930   4.3930
     4.8903   4.8903   5.7321   5.7321   6.2351   6.2351   6.5516   6.5516
     7.3073   7.3073

          k = 0.0000-0.2579 0.0000 ( 36445 PWs)   bands (ev):

   -44.1666 -44.1666 -22.2720 -22.2720 -22.1842 -22.1842 -22.1076 -22.1074
    -8.5956  -8.4687  -7.1339  -7.0121  -5.9684  -5.3913  -4.7775  -4.6822
    -4.5182  -3.7005   0.1631   0.8730   1.0192   1.1732   1.2537   1.3769
     1.4303   1.6251   2.2482   2.8739   2.9267   2.9359   3.1327   3.6069
     3.6753   3.7243   3.9959   4.0116   4.1621   4.4176   4.4408   4.5770
     4.7862   4.9953   5.6615   5.9021   5.9665   6.0809   6.2713   6.6069
     7.0666   7.2186

          k = 0.0000-0.2579 0.1485 ( 36452 PWs)   bands (ev):

   -44.1666 -44.1666 -22.2720 -22.2720 -22.1842 -22.1842 -22.1076 -22.1075
    -8.5788  -8.4894  -7.1127  -7.0270  -5.9110  -5.5247  -4.7623  -4.6942
    -4.3576  -3.7997   0.2472   0.8539   0.9970   1.0597   1.2293   1.3843
     1.4220   1.8452   2.0334   2.8841   2.9279   2.9478   3.2874   3.6343
     3.6968   3.7466   3.9327   4.0380   4.2327   4.3212   4.4048   4.6540
     4.6990   4.7720   5.8578   5.9086   5.9526   6.2306   6.3837   6.4995
     6.8933   7.0127

          k = 0.0000-0.2579-0.2971 ( 36454 PWs)   bands (ev):

   -44.1666 -44.1666 -22.2720 -22.2720 -22.1842 -22.1842 -22.1075 -22.1075
    -8.5360  -8.5360  -7.0668  -7.0668  -5.7481  -5.7481  -4.7278  -4.7278
    -4.0545  -4.0545   0.4898   0.4898   1.1183   1.1183   1.3936   1.3936
     1.4027   1.4027   2.5189   2.5189   2.9070   2.9070   3.5984   3.5984
     3.7856   3.7856   4.0472   4.0472   4.1564   4.1564   4.4199   4.4199
     4.7290   4.7290   5.9116   5.9116   6.2026   6.2026   6.5643   6.5643
     6.6686   6.6686

          k = 1.5243 0.0000 0.0000 ( 36439 PWs)   bands (ev):

   -44.1653 -44.1653 -22.2654 -22.2654 -22.2162 -22.2162 -22.1041 -22.1039
    -8.0710  -7.9504  -6.9331  -6.8402  -5.7592  -5.2118  -4.9758  -4.6073
    -4.5398  -4.5132  -0.3147   0.2487   0.6815   0.7515   1.1893   1.6114
     1.6729   1.6946   1.8008   2.0182   2.1779   2.5056   2.6260   3.2503
     3.4641   3.5447   3.5546   3.6020   3.6985   3.8087   4.0642   4.2246
     4.2573   4.8183   6.0320   6.1787   6.4286   6.8475   6.9203   7.0240
     7.3186   7.4685

          k = 1.5243 0.0000 0.1485 ( 36476 PWs)   bands (ev):

   -44.1653 -44.1653 -22.2654 -22.2654 -22.2162 -22.2162 -22.1041 -22.1040
    -8.0551  -7.9701  -6.9176  -6.8523  -5.7055  -5.3553  -4.8617  -4.6066
    -4.5798  -4.4969  -0.2480   0.1625   0.6929   0.8129   1.1326   1.2514
     1.7183   1.7480   1.9183   2.0011   2.4033   2.5424   2.8810   3.1861
     3.3221   3.5328   3.5448   3.5863   3.7299   3.7397   4.0858   4.1622
     4.2383   4.5396   6.2675   6.4139   6.4542   6.8118   6.8379   7.0925
     7.1321   7.4609

          k = 1.5243 0.0000-0.2971 ( 36508 PWs)   bands (ev):

   -44.1653 -44.1653 -22.2654 -22.2654 -22.2162 -22.2162 -22.1040 -22.1040
    -8.0145  -8.0145  -6.8833  -6.8833  -5.5576  -5.5576  -4.7198  -4.7198
    -4.5248  -4.5248  -0.0620  -0.0620   0.8914   0.8914   0.9698   0.9698
     1.7455   1.7455   1.9676   1.9676   2.7412   2.7412   2.9958   2.9958
     3.3488   3.3488   3.5904   3.5904   3.6742   3.6742   4.0717   4.0717
     4.3093   4.3093   6.4671   6.4671   6.7108   6.7108   6.8476   6.8476
     7.3594   7.3595

          k =-0.2541-0.4514 0.0000 ( 36444 PWs)   bands (ev):

   -44.1662 -44.1662 -22.2701 -22.2700 -22.1936 -22.1936 -22.1066 -22.1064
    -8.4606  -8.3371  -7.0713  -6.9587  -5.9263  -5.3479  -4.7560  -4.6241
    -4.5975  -3.9191   0.2477   0.5011   0.9831   0.9930   1.3135   1.3878
     1.4220   1.7851   1.8109   2.4595   2.5288   3.2283   3.4412   3.4710
     3.5596   3.6172   3.8705   3.9002   3.9789   4.0659   4.1136   4.2921
     4.3987   4.8112   6.1133   6.1407   6.2596   6.3823   6.4408   6.8905
     6.9787   7.0807

          k =-0.2541-0.4514 0.1485 ( 36461 PWs)   bands (ev):

   -44.1662 -44.1662 -22.2701 -22.2700 -22.1936 -22.1936 -22.1066 -22.1064
    -8.4443  -8.3572  -7.0522  -6.9730  -5.8676  -5.4808  -4.7363  -4.6429
    -4.4525  -3.9940   0.3169   0.4940   0.7887   1.0622   1.2307   1.3549
     1.4692   1.7772   2.1462   2.4650   2.5174   2.9946   3.3732   3.4125
     3.5196   3.5883   3.7708   3.9153   4.0019   4.0699   4.3225   4.3860
     4.5370   4.8763   5.9212   5.9436   6.2361   6.3473   6.4445   6.7619
     7.1787   7.1930

          k =-0.2541-0.4514-0.2971 ( 36490 PWs)   bands (ev):

   -44.1662 -44.1662 -22.2701 -22.2701 -22.1936 -22.1936 -22.1065 -22.1065
    -8.4026  -8.4026  -7.0103  -7.0103  -5.7032  -5.7032  -4.6898  -4.6898
    -4.1956  -4.1956   0.4512   0.4512   0.7801   0.7801   1.3297   1.3297
     1.6655   1.6655   2.4753   2.4753   2.6209   2.6209   3.2861   3.2861
     3.5014   3.5014   3.8998   3.8998   4.0648   4.0648   4.3569   4.3569
     4.9030   4.9030   5.7276   5.7276   6.2514   6.2514   6.5666   6.5666
     7.3062   7.3062

          k = 0.0000-0.3869 0.0000 ( 36477 PWs)   bands (ev):

   -44.1666 -44.1666 -22.2720 -22.2720 -22.1842 -22.1842 -22.1076 -22.1074
    -8.5933  -8.4681  -7.1296  -7.0081  -5.9856  -5.4000  -4.7917  -4.6705
    -4.5198  -3.7009   0.1826   0.8814   1.1610   1.1964   1.3202   1.3762
     1.4297   1.7004   2.2400   2.8928   2.9390   2.9459   3.1427   3.3452
     3.4492   3.7568   3.9670   4.0313   4.0368   4.2598   4.4418   4.5429
     4.7824   4.9781   5.7020   5.9612   6.0226   6.1684   6.2921   6.6415
     6.9146   7.2187

          k = 0.0000-0.3869 0.1485 ( 36452 PWs)   bands (ev):

   -44.1666 -44.1666 -22.2720 -22.2720 -22.1842 -22.1842 -22.1076 -22.1075
    -8.5767  -8.4885  -7.1089  -7.0234  -5.9267  -5.5339  -4.7737  -4.6877
    -4.3576  -3.7998   0.2688   0.8851   1.0105   1.1980   1.2998   1.3836
     1.4214   1.8577   2.0828   2.9017   2.9392   2.9738   3.2320   3.3510
     3.4659   3.8310   3.9625   4.0100   4.1264   4.2538   4.3040   4.6391
     4.6939   4.7677   5.9110   5.9548   6.0013   6.2538   6.4012   6.5329
     6.7634   7.0163

          k = 0.0000-0.3869-0.2971 ( 36454 PWs)   bands (ev):

   -44.1666 -44.1666 -22.2720 -22.2720 -22.1842 -22.1842 -22.1075 -22.1075
    -8.5345  -8.5345  -7.0635  -7.0635  -5.7602  -5.7602  -4.7307  -4.7307
    -4.0541  -4.0541   0.5169   0.5169   1.2178   1.2178   1.4021   1.4021
     1.4114   1.4114   2.5626   2.5626   2.9216   2.9216   3.3188   3.3188
     3.8229   3.8229   4.0218   4.0218   4.1317   4.1317   4.3347   4.3347
     4.7222   4.7222   5.9519   5.9519   6.2509   6.2509   6.4920   6.4920
     6.6791   6.6791

          k =-2.0325 0.0000 0.0000 ( 36452 PWs)   bands (ev):

   -44.1666 -44.1666 -22.2720 -22.2720 -22.1842 -22.1842 -22.1076 -22.1074
    -8.5923  -8.4679  -7.1280  -7.0062  -5.9928  -5.4035  -4.7972  -4.6658
    -4.5208  -3.7011   0.1886   0.8856   1.2052   1.2775   1.2985   1.3760
     1.4294   1.7439   2.2375   2.9011   2.9470   2.9499   3.1211   3.2371
     3.3270   3.9004   3.9221   3.9549   4.0462   4.1670   4.4422   4.5289
     4.7808   4.9716   5.7188   5.9805   6.0400   6.2150   6.3008   6.6546
     6.8412   7.2186

          k =-2.0325 0.0000 0.1485 ( 36456 PWs)   bands (ev):

   -44.1666 -44.1666 -22.2720 -22.2720 -22.1842 -22.1842 -22.1076 -22.1075
    -8.5758  -8.4881  -7.1074  -7.0217  -5.9332  -5.5377  -4.7780  -4.6853
    -4.3577  -3.7999   0.2756   0.8978   1.0154   1.2919   1.3098   1.3834
     1.4211   1.8627   2.1104   2.9095   2.9438   2.9872   3.1452   3.2474
     3.3931   3.9252   3.9687   3.9982   4.0913   4.1477   4.2964   4.6334
     4.6922   4.7660   5.9349   5.9702   6.0149   6.2684   6.4086   6.5448
     6.7017   7.0178

          k =-2.0325 0.0000-0.2971 ( 36460 PWs)   bands (ev):

   -44.1666 -44.1666 -22.2720 -22.2720 -22.1842 -22.1842 -22.1075 -22.1075
    -8.5338  -8.5338  -7.0621  -7.0621  -5.7652  -5.7652  -4.7320  -4.7320
    -4.0540  -4.0540   0.5260   0.5260   1.2646   1.2646   1.4018   1.4018
     1.4240   1.4240   2.5864   2.5864   2.9278   2.9278   3.1861   3.1861
     3.8431   3.8431   4.0197   4.0197   4.1212   4.1212   4.2968   4.2968
     4.7195   4.7195   5.9641   5.9641   6.2766   6.2766   6.4534   6.4534
     6.6836   6.6836

     the Fermi energy is     5.2384 ev

!    total energy              =   -4240.89804942 Ry

     total all-electron energy =   -150287.591744 Ry
     estimated scf accuracy    <          2.8E-13 Ry
     smearing contrib. (-TS)   =       0.00000000 Ry
     internal energy E=F+TS    =   -4240.89804942 Ry

     The total energy is F=E-TS. E is the sum of the following terms:
     one-electron contribution =    -169.59594168 Ry
     hartree contribution      =     118.22592062 Ry
     xc contribution           =    -201.70056530 Ry
     ewald contribution        =    -220.26930257 Ry
     one-center paw contrib.   =   -3767.55816048 Ry

     convergence has been achieved in  17 iterations

     Forces acting on atoms (cartesian axes, Ry/au):

     atom    1 type  1   force =     0.00000000    0.02812297    0.00000000
     atom    2 type  1   force =    -0.00000000   -0.02812297    0.00000000
     atom    3 type  2   force =     0.00000000   -0.00052059    0.00000000
     atom    4 type  2   force =    -0.00000000    0.00052059    0.00000000
     atom    5 type  2   force =     0.00000000   -0.00659687   -0.00513121
     atom    6 type  2   force =     0.00000000    0.00659687    0.00513121
     atom    7 type  2   force =    -0.00000000   -0.00659687    0.00513121
     atom    8 type  2   force =     0.00000000    0.00659687   -0.00513121
     atom    9 type  2   force =     0.00000000   -0.05653724   -0.06982515
     atom   10 type  2   force =     0.00000000    0.05653724    0.06982515
     atom   11 type  2   force =    -0.00000000   -0.05653724    0.06982515
     atom   12 type  2   force =     0.00000000    0.05653724   -0.06982515

     Total force =     0.184797     Total SCF correction =     0.000000


     Computing stress (Cartesian axis) and pressure

          total   stress  (Ry/bohr**3)                   (kbar)     P=       16.87
   0.00015080  -0.00000000   0.00000000           22.18       -0.00        0.00
  -0.00000000   0.00005110   0.00000000           -0.00        7.52        0.00
   0.00000000   0.00000000   0.00014209            0.00        0.00       20.90

 
     init_run     :     18.83s CPU     19.36s WALL (       1 calls)
     electrons    :    882.78s CPU    893.43s WALL (       1 calls)
     forces       :      6.75s CPU      7.00s WALL (       1 calls)
     stress       :     41.86s CPU     42.44s WALL (       1 calls)

     Called by init_run:
     wfcinit      :     14.36s CPU     14.55s WALL (       1 calls)
     potinit      :      1.49s CPU      1.54s WALL (       1 calls)
     hinit0       :      1.68s CPU      1.72s WALL (       1 calls)

     Called by electrons:
     c_bands      :    732.28s CPU    735.51s WALL (      18 calls)
     sum_band     :    125.34s CPU    129.33s WALL (      18 calls)
     v_of_rho     :      5.54s CPU      5.82s WALL (      18 calls)
     newd         :     13.94s CPU     17.29s WALL (      18 calls)
     PAW_pot      :      5.86s CPU      5.86s WALL (      18 calls)
     mix_rho      :      0.79s CPU      0.81s WALL (      18 calls)

     Called by c_bands:
     init_us_2    :     10.99s CPU     11.05s WALL (    2457 calls)
     cegterg      :    657.81s CPU    660.55s WALL (    1134 calls)

     Called by *egterg:
     cdiaghg      :     25.38s CPU     25.44s WALL (    7546 calls)
     h_psi        :    502.78s CPU    505.40s WALL (    7672 calls)
     s_psi        :     42.19s CPU     42.25s WALL (    7672 calls)
     g_psi        :      1.86s CPU      1.87s WALL (    6475 calls)

     Called by h_psi:
     h_psi:calbec :     36.50s CPU     36.58s WALL (    7672 calls)
     vloc_psi     :    421.32s CPU    423.71s WALL (    7672 calls)
     add_vuspsi   :     41.98s CPU     42.05s WALL (    7672 calls)

     General routines
     calbec       :     48.49s CPU     48.59s WALL (    9121 calls)
     fft          :      3.36s CPU      3.49s WALL (     258 calls)
     ffts         :      0.08s CPU      0.08s WALL (      36 calls)
     fftw         :    393.44s CPU    395.62s WALL (  406330 calls)
     interpolate  :      0.31s CPU      0.31s WALL (      18 calls)
 
     Parallel routines
 
     PWSCF        :  15m50.48s CPU  16m 2.58s WALL

 
   This run was terminated on:  15:32:42  19Nov2021            

=------------------------------------------------------------------------------=
   JOB DONE.
=------------------------------------------------------------------------------=
