
     Program PWSCF v.6.8 starts on 19Nov2021 at 15:16:29 

     This program is part of the open-source Quantum ESPRESSO suite
     for quantum simulation of materials; please cite
         "P. Giannozzi et al., J. Phys.:Condens. Matter 21 395502 (2009);
         "P. Giannozzi et al., J. Phys.:Condens. Matter 29 465901 (2017);
         "P. Giannozzi et al., J. Chem. Phys. 152 154105 (2020);
          URL http://www.quantum-espresso.org", 
     in publications or presentations arising from this work. More details at
     http://www.quantum-espresso.org/quote

     Parallel version (MPI), running on    10 processors

     MPI processes distributed on     1 nodes
     R & G space division:  proc/nbgrp/npool/nimage =      10
     68115 MiB available memory on the printing compute node when the environment starts
 
     Waiting for input...
     Reading input from standard input

     Current dimensions of program PWSCF are:
     Max number of different atomic species (ntypx) = 10
     Max number of k-points (npk) =  40000
     Max angular momentum in pseudopotentials (lmaxx) =  4
     file Zr.pbe-spn-kjpaw_psl.1.0.0.UPF: wavefunction(s)  4S 4P renormalized
     file Te.pbe-n-kjpaw_psl.1.0.0.UPF: wavefunction(s)  5S 5P renormalized
     Message from routine setup:
     using ibrav=0 with symmetry is DISCOURAGED, use correct ibrav instead

     Subspace diagonalization in iterative solution of the eigenvalue problem:
     a serial algorithm will be used

 
     Parallelization info
     --------------------
     sticks:   dense  smooth     PW     G-vecs:    dense   smooth      PW
     Min         734     293     87               115340    29174    4753
     Max         735     295     88               115345    29176    4760
     Sum        7345    2937    873              1153415   291749   47557
 
     Using Slab Decomposition
 


     bravais-lattice index     =            0
     lattice parameter (alat)  =      15.5510  a.u.
     unit-cell volume          =    3018.5011 (a.u.)^3
     number of atoms/cell      =           12
     number of atomic types    =            2
     number of electrons       =        84.00
     number of Kohn-Sham states=           50
     kinetic-energy cutoff     =      80.0000  Ry
     charge density cutoff     =     800.0000  Ry
     scf convergence threshold =      1.0E-10
     mixing beta               =       0.7000
     number of iterations used =            8  plain     mixing
     Exchange-correlation= SLA  PW   PBX  PBC
                           (   1   4   3   4   0   0   0)

     celldm(1)=  15.551040  celldm(2)=   0.000000  celldm(3)=   0.000000
     celldm(4)=   0.000000  celldm(5)=   0.000000  celldm(6)=   0.000000

     crystal axes: (cart. coord. in units of alat)
               a(1) = (   0.246007  -0.969268   0.000000 )  
               a(2) = (   0.246007   0.969268   0.000000 )  
               a(3) = (   0.000000   0.000000   1.683031 )  

     reciprocal axes: (cart. coord. in units 2 pi/alat)
               b(1) = (  2.032465 -0.515853  0.000000 )  
               b(2) = (  2.032465  0.515853  0.000000 )  
               b(3) = (  0.000000  0.000000  0.594166 )  


     PseudoPot. # 1 for Zr read from file:
     pseudo/Zr.pbe-spn-kjpaw_psl.1.0.0.UPF
     MD5 check sum: 02112c41713a0468aff2bb39ef194e36
     Pseudo is Projector augmented-wave + core cor, Zval = 12.0
     Generated using &quot;atomic&quot; code by A. Dal Corso  v.6.2.2
     Shape of augmentation charge: PSQ
     Using radial grid of 1225 points,  6 beta functions with: 
                l(1) =   0
                l(2) =   0
                l(3) =   1
                l(4) =   1
                l(5) =   2
                l(6) =   2
     Q(r) pseudized with 0 coefficients 


     PseudoPot. # 2 for Te read from file:
     pseudo/Te.pbe-n-kjpaw_psl.1.0.0.UPF
     MD5 check sum: 66247bff2bd9dbf220fbb0bf5ab56e9d
     Pseudo is Projector augmented-wave + core cor, Zval =  6.0
     Generated using &quot;atomic&quot; code by A. Dal Corso  v.6.3
     Shape of augmentation charge: PSQ
     Using radial grid of 1245 points,  6 beta functions with: 
                l(1) =   0
                l(2) =   0
                l(3) =   1
                l(4) =   1
                l(5) =   2
                l(6) =   2
     Q(r) pseudized with 0 coefficients 


     atomic species   valence    mass     pseudopotential
        Zr            12.00    91.22000     Zr( 1.00)
        Te             6.00   127.60000     Te( 1.00)

      8 Sym. Ops., with inversion, found ( 4 have fractional translation)



   Cartesian axes

     site n.     atom                  positions (alat units)
         1           Zr  tau(   1) = (   0.0000000   0.5979289   0.4207578  )
         2           Zr  tau(   2) = (   0.2460067   0.3713392   1.2622733  )
         3           Te  tau(   3) = (   0.2460067   0.3340941   0.4207578  )
         4           Te  tau(   4) = (   0.0000000   0.6351740   1.2622733  )
         5           Te  tau(   5) = (   0.2460067   0.8133210   0.2544492  )
         6           Te  tau(   6) = (   0.0000000   0.1559471   1.4285818  )
         7           Te  tau(   7) = (   0.2460067   0.8133210   0.5870663  )
         8           Te  tau(   8) = (   0.0000000   0.1559471   1.0959648  )
         9           Te  tau(   9) = (   0.0000000   0.4283434   0.7437162  )
        10           Te  tau(  10) = (   0.2460067   0.5409247   0.9393149  )
        11           Te  tau(  11) = (   0.0000000   0.4283434   0.0977994  )
        12           Te  tau(  12) = (   0.2460067   0.5409247   1.5852317  )

     number of k points=    63  Methfessel-Paxton smearing, width (Ry)=  0.0030
                       cart. coord. in units 2pi/alat
        k(    1) = (   0.0000000   0.0000000   0.0000000), wk =   0.0078125
        k(    2) = (   0.0000000   0.0000000   0.1485415), wk =   0.0156250
        k(    3) = (   0.0000000   0.0000000  -0.2970830), wk =   0.0078125
        k(    4) = (   0.2540581   0.0644816   0.0000000), wk =   0.0312500
        k(    5) = (   0.2540581   0.0644816   0.1485415), wk =   0.0625000
        k(    6) = (   0.2540581   0.0644816  -0.2970830), wk =   0.0312500
        k(    7) = (   0.5081162   0.1289633   0.0000000), wk =   0.0312500
        k(    8) = (   0.5081162   0.1289633   0.1485415), wk =   0.0625000
        k(    9) = (   0.5081162   0.1289633  -0.2970830), wk =   0.0312500
        k(   10) = (   0.7621743   0.1934449   0.0000000), wk =   0.0312500
        k(   11) = (   0.7621743   0.1934449   0.1485415), wk =   0.0625000
        k(   12) = (   0.7621743   0.1934449  -0.2970830), wk =   0.0312500
        k(   13) = (  -1.0162324  -0.2579266   0.0000000), wk =   0.0156250
        k(   14) = (  -1.0162324  -0.2579266   0.1485415), wk =   0.0312500
        k(   15) = (  -1.0162324  -0.2579266  -0.2970830), wk =   0.0156250
        k(   16) = (   0.5081162   0.0000000   0.0000000), wk =   0.0156250
        k(   17) = (   0.5081162   0.0000000   0.1485415), wk =   0.0312500
        k(   18) = (   0.5081162   0.0000000  -0.2970830), wk =   0.0156250
        k(   19) = (   0.7621743   0.0644816   0.0000000), wk =   0.0312500
        k(   20) = (   0.7621743   0.0644816   0.1485415), wk =   0.0625000
        k(   21) = (   0.7621743   0.0644816  -0.2970830), wk =   0.0312500
        k(   22) = (   1.0162324   0.1289633   0.0000000), wk =   0.0312500
        k(   23) = (   1.0162324   0.1289633   0.1485415), wk =   0.0625000
        k(   24) = (   1.0162324   0.1289633  -0.2970830), wk =   0.0312500
        k(   25) = (  -0.7621743  -0.3224082   0.0000000), wk =   0.0312500
        k(   26) = (  -0.7621743  -0.3224082   0.1485415), wk =   0.0625000
        k(   27) = (  -0.7621743  -0.3224082  -0.2970830), wk =   0.0312500
        k(   28) = (  -0.5081162  -0.2579266   0.0000000), wk =   0.0312500
        k(   29) = (  -0.5081162  -0.2579266   0.1485415), wk =   0.0625000
        k(   30) = (  -0.5081162  -0.2579266  -0.2970830), wk =   0.0312500
        k(   31) = (  -0.2540581  -0.1934449   0.0000000), wk =   0.0312500
        k(   32) = (  -0.2540581  -0.1934449   0.1485415), wk =   0.0625000
        k(   33) = (  -0.2540581  -0.1934449  -0.2970830), wk =   0.0312500
        k(   34) = (   0.0000000  -0.1289633   0.0000000), wk =   0.0156250
        k(   35) = (   0.0000000  -0.1289633   0.1485415), wk =   0.0312500
        k(   36) = (   0.0000000  -0.1289633  -0.2970830), wk =   0.0156250
        k(   37) = (   1.0162324   0.0000000   0.0000000), wk =   0.0156250
        k(   38) = (   1.0162324   0.0000000   0.1485415), wk =   0.0312500
        k(   39) = (   1.0162324   0.0000000  -0.2970830), wk =   0.0156250
        k(   40) = (   1.2702905   0.0644816   0.0000000), wk =   0.0312500
        k(   41) = (   1.2702905   0.0644816   0.1485415), wk =   0.0625000
        k(   42) = (   1.2702905   0.0644816  -0.2970830), wk =   0.0312500
        k(   43) = (  -0.5081162  -0.3868899   0.0000000), wk =   0.0312500
        k(   44) = (  -0.5081162  -0.3868899   0.1485415), wk =   0.0625000
        k(   45) = (  -0.5081162  -0.3868899  -0.2970830), wk =   0.0312500
        k(   46) = (  -0.2540581  -0.3224082   0.0000000), wk =   0.0312500
        k(   47) = (  -0.2540581  -0.3224082   0.1485415), wk =   0.0625000
        k(   48) = (  -0.2540581  -0.3224082  -0.2970830), wk =   0.0312500
        k(   49) = (   0.0000000  -0.2579266   0.0000000), wk =   0.0156250
        k(   50) = (   0.0000000  -0.2579266   0.1485415), wk =   0.0312500
        k(   51) = (   0.0000000  -0.2579266  -0.2970830), wk =   0.0156250
        k(   52) = (   1.5243485   0.0000000   0.0000000), wk =   0.0156250
        k(   53) = (   1.5243485   0.0000000   0.1485415), wk =   0.0312500
        k(   54) = (   1.5243485   0.0000000  -0.2970830), wk =   0.0156250
        k(   55) = (  -0.2540581  -0.4513715   0.0000000), wk =   0.0312500
        k(   56) = (  -0.2540581  -0.4513715   0.1485415), wk =   0.0625000
        k(   57) = (  -0.2540581  -0.4513715  -0.2970830), wk =   0.0312500
        k(   58) = (   0.0000000  -0.3868899   0.0000000), wk =   0.0156250
        k(   59) = (   0.0000000  -0.3868899   0.1485415), wk =   0.0312500
        k(   60) = (   0.0000000  -0.3868899  -0.2970830), wk =   0.0156250
        k(   61) = (  -2.0324647   0.0000000   0.0000000), wk =   0.0078125
        k(   62) = (  -2.0324647   0.0000000   0.1485415), wk =   0.0156250
        k(   63) = (  -2.0324647   0.0000000  -0.2970830), wk =   0.0078125

     Dense  grid:  1153415 G-vectors     FFT dimensions: ( 144, 144, 240)

     Smooth grid:   291749 G-vectors     FFT dimensions: (  90,  90, 150)

     Estimated max dynamical RAM per process >     657.19 MB

     Estimated total dynamical RAM >       6.42 GB

     Initial potential from superposition of free atoms

     starting charge   83.99353, renormalised to   84.00000
     Starting wfcs are   66 randomized atomic wfcs
     Checking if some PAW data can be deallocated... 

     total cpu time spent up to now is       20.2 secs

     Self-consistent Calculation

     iteration #  1     ecut=    80.00 Ry     beta= 0.70
     Davidson diagonalization with overlap
     ethr =  1.00E-02,  avg # of iterations =  2.2

     Threshold (ethr) on eigenvalues was too large:
     Diagonalizing with lowered threshold

     Davidson diagonalization with overlap
     ethr =  4.90E-04,  avg # of iterations =  4.0

     total cpu time spent up to now is      108.2 secs

     total energy              =   -4240.67273838 Ry
     estimated scf accuracy    <       0.46139357 Ry

     iteration #  2     ecut=    80.00 Ry     beta= 0.70
     Davidson diagonalization with overlap
     ethr =  5.49E-04,  avg # of iterations =  8.3

     total cpu time spent up to now is      173.9 secs

     total energy              =   -4240.55869755 Ry
     estimated scf accuracy    <       2.08652340 Ry

     iteration #  3     ecut=    80.00 Ry     beta= 0.70
     Davidson diagonalization with overlap
     ethr =  5.49E-04,  avg # of iterations =  5.6

     total cpu time spent up to now is      228.7 secs

     total energy              =   -4240.89731694 Ry
     estimated scf accuracy    <       0.00815388 Ry

     iteration #  4     ecut=    80.00 Ry     beta= 0.70
     Davidson diagonalization with overlap
     c_bands:  2 eigenvalues not converged
     c_bands:  1 eigenvalues not converged
     c_bands:  2 eigenvalues not converged
     c_bands:  1 eigenvalues not converged
     c_bands:  1 eigenvalues not converged
     c_bands:  3 eigenvalues not converged
     c_bands:  1 eigenvalues not converged
     c_bands:  2 eigenvalues not converged
     c_bands:  1 eigenvalues not converged
     c_bands:  1 eigenvalues not converged
     c_bands:  2 eigenvalues not converged
     c_bands:  1 eigenvalues not converged
     c_bands:  1 eigenvalues not converged
     c_bands:  2 eigenvalues not converged
     c_bands:  2 eigenvalues not converged
     ethr =  9.71E-06,  avg # of iterations = 16.6

     total cpu time spent up to now is      329.8 secs

     total energy              =   -4240.90588719 Ry
     estimated scf accuracy    <       0.03373059 Ry

     iteration #  5     ecut=    80.00 Ry     beta= 0.70
     Davidson diagonalization with overlap
     ethr =  9.71E-06,  avg # of iterations =  6.2

     total cpu time spent up to now is      382.7 secs

     total energy              =   -4240.90775344 Ry
     estimated scf accuracy    <       0.00555656 Ry

     iteration #  6     ecut=    80.00 Ry     beta= 0.70
     Davidson diagonalization with overlap
     ethr =  6.61E-06,  avg # of iterations =  3.8

     total cpu time spent up to now is      427.0 secs

     total energy              =   -4240.90822273 Ry
     estimated scf accuracy    <       0.00096667 Ry

     iteration #  7     ecut=    80.00 Ry     beta= 0.70
     Davidson diagonalization with overlap
     ethr =  1.15E-06,  avg # of iterations =  8.2

     total cpu time spent up to now is      490.9 secs

     total energy              =   -4240.90864048 Ry
     estimated scf accuracy    <       0.00070240 Ry

     iteration #  8     ecut=    80.00 Ry     beta= 0.70
     Davidson diagonalization with overlap
     ethr =  8.36E-07,  avg # of iterations =  2.1

     total cpu time spent up to now is      529.6 secs

     total energy              =   -4240.90866079 Ry
     estimated scf accuracy    <       0.00010861 Ry

     iteration #  9     ecut=    80.00 Ry     beta= 0.70
     Davidson diagonalization with overlap
     c_bands:  1 eigenvalues not converged
     ethr =  1.29E-07,  avg # of iterations =  6.3

     total cpu time spent up to now is      581.9 secs

     total energy              =   -4240.90869472 Ry
     estimated scf accuracy    <       0.00000963 Ry

     iteration # 10     ecut=    80.00 Ry     beta= 0.70
     Davidson diagonalization with overlap
     ethr =  1.15E-08,  avg # of iterations =  5.3

     total cpu time spent up to now is      629.6 secs

     total energy              =   -4240.90869741 Ry
     estimated scf accuracy    <       0.00000071 Ry

     iteration # 11     ecut=    80.00 Ry     beta= 0.70
     Davidson diagonalization with overlap
     ethr =  8.47E-10,  avg # of iterations =  6.7

     total cpu time spent up to now is      687.5 secs

     total energy              =   -4240.90869791 Ry
     estimated scf accuracy    <       0.00000016 Ry

     iteration # 12     ecut=    80.00 Ry     beta= 0.70
     Davidson diagonalization with overlap
     ethr =  1.86E-10,  avg # of iterations =  4.3

     total cpu time spent up to now is      732.3 secs

     total energy              =   -4240.90869794 Ry
     estimated scf accuracy    <          5.4E-09 Ry

     iteration # 13     ecut=    80.00 Ry     beta= 0.70
     Davidson diagonalization with overlap
     ethr =  6.41E-12,  avg # of iterations =  9.4

     total cpu time spent up to now is      807.0 secs

     total energy              =   -4240.90869794 Ry
     estimated scf accuracy    <       0.00000001 Ry

     iteration # 14     ecut=    80.00 Ry     beta= 0.70
     Davidson diagonalization with overlap
     ethr =  6.41E-12,  avg # of iterations =  3.1

     total cpu time spent up to now is      851.2 secs

     total energy              =   -4240.90869795 Ry
     estimated scf accuracy    <          9.7E-10 Ry

     iteration # 15     ecut=    80.00 Ry     beta= 0.70
     Davidson diagonalization with overlap
     ethr =  1.15E-12,  avg # of iterations =  7.5

     total cpu time spent up to now is      910.8 secs

     total energy              =   -4240.90869795 Ry
     estimated scf accuracy    <          6.8E-10 Ry

     iteration # 16     ecut=    80.00 Ry     beta= 0.70
     Davidson diagonalization with overlap
     ethr =  8.09E-13,  avg # of iterations =  1.7

     total cpu time spent up to now is      949.5 secs

     total energy              =   -4240.90869795 Ry
     estimated scf accuracy    <          2.0E-10 Ry

     iteration # 17     ecut=    80.00 Ry     beta= 0.70
     Davidson diagonalization with overlap
     ethr =  2.40E-13,  avg # of iterations =  5.3

     total cpu time spent up to now is      995.5 secs

     End of self-consistent calculation

          k = 0.0000 0.0000 0.0000 ( 36359 PWs)   bands (ev):

   -44.1622 -44.1622 -22.2694 -22.2694 -22.1814 -22.1813 -22.1022 -22.1020
    -8.5137  -8.3719  -7.1383  -7.0053  -5.9752  -5.3850  -4.7597  -4.7111
    -4.5606  -3.7165   0.1456   0.8472   0.8631   1.1688   1.1810   1.4844
     1.5219   1.5480   2.2583   2.8417   2.9190   2.9393   3.1532   3.4457
     3.9416   4.0175   4.1336   4.1514   4.3374   4.4221   4.5544   4.6383
     4.7798   5.0976   5.6103   5.7943   5.8322   5.9665   6.2030   6.5935
     7.1892   7.2643

          k = 0.0000 0.0000 0.1485 ( 36415 PWs)   bands (ev):

   -44.1622 -44.1622 -22.2694 -22.2694 -22.1814 -22.1813 -22.1021 -22.1020
    -8.4953  -8.3955  -7.1142  -7.0209  -5.9184  -5.5260  -4.7488  -4.7172
    -4.3921  -3.8182   0.2261   0.8148   0.9186   0.9762   1.1402   1.4931
     1.5380   1.8303   1.9814   2.8543   2.9089   2.9481   3.3397   3.5236
     3.8608   4.0595   4.1147   4.1538   4.3303   4.4003   4.5316   4.6803
     4.7500   4.7675   5.7887   5.8295   5.8323   6.2152   6.3250   6.4791
     6.9837   7.0630

          k = 0.0000 0.0000-0.2971 ( 36410 PWs)   bands (ev):

   -44.1622 -44.1622 -22.2694 -22.2694 -22.1813 -22.1813 -22.1021 -22.1021
    -8.4479  -8.4479  -7.0633  -7.0633  -5.7550  -5.7550  -4.7322  -4.7322
    -4.0794  -4.0794   0.4606   0.4606   1.0062   1.0062   1.3695   1.3695
     1.5149   1.5149   2.4877   2.4877   2.8828   2.8828   3.6659   3.6659
     3.9196   3.9196   4.1763   4.1763   4.2633   4.2633   4.5100   4.5100
     4.7330   4.7330   5.8143   5.8143   6.1685   6.1685   6.6276   6.6276
     6.6577   6.6577

          k = 0.2541 0.0645 0.0000 ( 36396 PWs)   bands (ev):

   -44.1618 -44.1618 -22.2675 -22.2675 -22.1908 -22.1908 -22.1011 -22.1010
    -8.3830  -8.2426  -7.0762  -6.9552  -5.9192  -5.3364  -4.7160  -4.6665
    -4.6368  -3.9252   0.2139   0.6093   0.9499   0.9839   1.1127   1.3344
     1.3471   1.5597   1.7483   2.6104   2.6473   3.1329   3.3652   3.6846
     3.7682   3.8182   3.9185   3.9619   4.1098   4.3030   4.3377   4.4538
     4.5196   4.6555   5.9862   6.0042   6.1249   6.2488   6.3751   6.7870
     7.0747   7.2649

          k = 0.2541 0.0645 0.1485 ( 36423 PWs)   bands (ev):

   -44.1618 -44.1618 -22.2675 -22.2675 -22.1908 -22.1908 -22.1011 -22.1010
    -8.3648  -8.2659  -7.0542  -6.9694  -5.8626  -5.4761  -4.7082  -4.6721
    -4.4825  -4.0036   0.2818   0.5771   0.8350   1.0084   1.0352   1.2109
     1.3944   1.7125   2.0009   2.6137   2.6315   2.9154   3.4441   3.4840
     3.5181   3.8921   3.9908   4.0726   4.0893   4.2613   4.4536   4.5207
     4.6150   4.7503   5.9017   5.9834   6.1045   6.1807   6.2126   6.8635
     7.2074   7.2238

          k = 0.2541 0.0645-0.2971 ( 36436 PWs)   bands (ev):

   -44.1618 -44.1618 -22.2675 -22.2675 -22.1908 -22.1908 -22.1010 -22.1010
    -8.3179  -8.3179  -7.0080  -7.0080  -5.7010  -5.7010  -4.6901  -4.6901
    -4.2139  -4.2139   0.4512   0.4512   0.8052   0.8052   1.1257   1.1257
     1.6210   1.6210   2.4702   2.4702   2.6450   2.6450   3.3182   3.3182
     3.7158   3.7158   4.0463   4.0463   4.2077   4.2077   4.4947   4.4947
     4.8664   4.8664   5.7672   5.7672   6.1158   6.1158   6.5110   6.5110
     7.3342   7.3342

          k = 0.5081 0.1290 0.0000 ( 36499 PWs)   bands (ev):

   -44.1609 -44.1609 -22.2628 -22.2628 -22.2135 -22.2135 -22.0986 -22.0985
    -7.9982  -7.8610  -6.9273  -6.8324  -5.7680  -5.2127  -4.9691  -4.5960
    -4.5489  -4.5237  -0.2236   0.2723   0.7434   0.7850   1.1653   1.3231
     1.6385   1.6559   1.7259   2.0681   2.1356   2.4880   2.6467   3.4223
     3.4537   3.5515   3.6025   3.7569   3.7619   3.8577   4.0388   4.2741
     4.2885   4.7735   6.0131   6.2331   6.3466   6.6149   6.6745   7.1197
     7.3907   7.5357

          k = 0.5081 0.1290 0.1485 ( 36476 PWs)   bands (ev):

   -44.1609 -44.1609 -22.2628 -22.2628 -22.2135 -22.2135 -22.0986 -22.0985
    -7.9805  -7.8839  -6.9101  -6.8436  -5.7149  -5.3612  -4.8475  -4.6032
    -4.5764  -4.5146  -0.1624   0.2070   0.7436   0.8206   1.1390   1.2116
     1.4079   1.5958   1.9987   2.0875   2.2659   2.5508   2.9102   3.3062
     3.4566   3.4995   3.5607   3.7310   3.7928   3.8150   3.9219   4.2767
     4.3197   4.4560   6.3014   6.3698   6.4719   6.6140   6.7522   6.9993
     7.2557   7.5251

          k = 0.5081 0.1290-0.2971 ( 36466 PWs)   bands (ev):

   -44.1609 -44.1609 -22.2628 -22.2628 -22.2135 -22.2135 -22.0985 -22.0985
    -7.9348  -7.9348  -6.8739  -6.8739  -5.5668  -5.5668  -4.7034  -4.7034
    -4.5382  -4.5382   0.0091   0.0091   0.8926   0.8926   0.9870   0.9870
     1.4854   1.4854   2.0565   2.0565   2.6223   2.6223   3.1869   3.1869
     3.3802   3.3802   3.6029   3.6029   3.7858   3.7858   3.9737   3.9737
     4.3651   4.3651   6.5260   6.5260   6.5757   6.5757   6.8998   6.8998
     7.3180   7.3180

          k = 0.7622 0.1934 0.0000 ( 36521 PWs)   bands (ev):

   -44.1601 -44.1601 -22.2581 -22.2581 -22.2360 -22.2360 -22.0960 -22.0960
    -7.3895  -7.2499  -6.7862  -6.6990  -5.7631  -5.6303  -5.1579  -5.0983
    -4.4667  -4.4274  -0.3670   0.0153   0.0370   0.8687   0.8913   1.3173
     1.4934   1.5920   2.0228   2.0964   2.2240   2.3252   2.4823   2.8227
     3.0407   3.1890   3.3485   3.4188   3.5410   3.6555   3.7064   3.7701
     3.9237   4.6034   6.3461   6.5240   6.6658   6.9891   7.0075   7.0584
     7.4126   7.6136

          k = 0.7622 0.1934 0.1485 ( 36503 PWs)   bands (ev):

   -44.1601 -44.1601 -22.2581 -22.2581 -22.2360 -22.2360 -22.0960 -22.0960
    -7.3722  -7.2744  -6.7700  -6.7094  -5.7403  -5.6459  -5.1535  -5.1122
    -4.4598  -4.4323  -0.3284  -0.0577   0.1432   0.7355   0.9274   1.2569
     1.5008   1.5865   1.9771   2.0160   2.2091   2.5413   2.7216   2.9117
     2.9742   3.0155   3.2713   3.3193   3.5041   3.5907   3.8077   3.9298
     4.0059   4.4670   6.1901   6.4960   6.8019   6.9588   7.0623   7.1577
     7.2439   7.6728

          k = 0.7622 0.1934-0.2971 ( 36522 PWs)   bands (ev):

   -44.1601 -44.1601 -22.2581 -22.2581 -22.2360 -22.2360 -22.0960 -22.0960
    -7.3267  -7.3267  -6.7370  -6.7370  -5.6896  -5.6896  -5.1376  -5.1376
    -4.4450  -4.4450  -0.2110  -0.2110   0.4225   0.4225   1.0712   1.0712
     1.5512   1.5512   1.9722   1.9722   2.4752   2.4752   2.8589   2.8589
     2.9400   2.9400   3.2473   3.2473   3.5867   3.5867   3.9698   3.9698
     4.1136   4.1136   6.5065   6.5065   6.5814   6.5814   7.0989   7.0989
     7.6199   7.6200

          k =-1.0162-0.2579 0.0000 ( 36506 PWs)   bands (ev):

   -44.1597 -44.1597 -22.2561 -22.2561 -22.2454 -22.2454 -22.0949 -22.0949
    -6.8061  -6.7841  -6.4664  -6.4632  -6.4502  -6.4376  -5.1210  -5.1206
    -4.4077  -4.3760  -0.2124  -0.1955   0.0903   0.1111   1.0142   1.0205
     1.4666   1.6528   2.1891   2.3423   2.3764   2.4041   2.7699   2.8528
     2.8778   2.9325   3.1674   3.2041   3.2734   3.3303   3.4267   3.5812
     4.0607   4.2999   6.7362   6.7994   6.9433   6.9538   7.1514   7.2528
     7.2532   7.3287

          k =-1.0162-0.2579 0.1485 ( 36506 PWs)   bands (ev):

   -44.1597 -44.1597 -22.2561 -22.2561 -22.2454 -22.2454 -22.0949 -22.0949
    -6.7991  -6.7829  -6.5060  -6.4993  -6.4124  -6.4074  -5.1198  -5.1195
    -4.4049  -4.3825  -0.2986  -0.2933   0.2573   0.2658   1.0110   1.0175
     1.4570   1.5854   2.1003   2.2535   2.3134   2.3850   2.6131   2.6514
     2.9178   2.9978   3.1389   3.2328   3.4599   3.5266   3.5806   3.6623
     4.1638   4.3096   6.4231   6.4456   6.6347   6.7126   7.2667   7.2708
     7.5027   7.5714

          k =-1.0162-0.2579-0.2971 ( 36528 PWs)   bands (ev):

   -44.1597 -44.1597 -22.2561 -22.2561 -22.2454 -22.2454 -22.0949 -22.0949
    -6.7866  -6.7866  -6.5235  -6.5235  -6.3932  -6.3932  -5.1185  -5.1185
    -4.3955  -4.3955  -0.3540  -0.3540   0.4066   0.4066   0.9918   0.9918
     1.4953   1.4953   2.0193   2.0193   2.3269   2.3269   2.7391   2.7391
     2.7779   2.7779   3.2268   3.2268   3.6080   3.6080   3.7479   3.7479
     4.3316   4.3316   6.1108   6.1108   6.5715   6.5715   7.2781   7.2781
     7.6491   7.6491

          k = 0.5081 0.0000 0.0000 ( 36503 PWs)   bands (ev):

   -44.1609 -44.1609 -22.2628 -22.2628 -22.2135 -22.2135 -22.0986 -22.0985
    -7.9994  -7.8612  -6.9273  -6.8324  -5.7652  -5.2118  -4.9671  -4.5886
    -4.5574  -4.5232  -0.2197   0.2652   0.7516   0.7893   1.1620   1.2857
     1.6339   1.6435   1.7099   2.0749   2.1313   2.4778   2.6517   3.4361
     3.4448   3.5863   3.6150   3.7433   3.7702   3.9027   4.0164   4.2926
     4.3102   4.7604   6.0198   6.2082   6.3750   6.5791   6.6221   7.1602
     7.3934   7.5668

          k = 0.5081 0.0000 0.1485 ( 36453 PWs)   bands (ev):

   -44.1609 -44.1609 -22.2628 -22.2628 -22.2135 -22.2135 -22.0986 -22.0985
    -7.9816  -7.8844  -6.9100  -6.8435  -5.7125  -5.3601  -4.8447  -4.6032
    -4.5737  -4.5184  -0.1593   0.2023   0.7513   0.8203   1.1441   1.2002
     1.3695   1.5741   1.9987   2.1056   2.2460   2.5417   2.9138   3.3184
     3.4802   3.4897   3.5740   3.7537   3.7856   3.8698   3.8777   4.3005
     4.3498   4.4326   6.2867   6.3767   6.4902   6.5734   6.7148   7.0347
     7.2647   7.5470

          k = 0.5081 0.0000-0.2971 ( 36452 PWs)   bands (ev):

   -44.1609 -44.1609 -22.2628 -22.2628 -22.2135 -22.2135 -22.0985 -22.0985
    -7.9356  -7.9356  -6.8737  -6.8737  -5.5652  -5.5652  -4.7007  -4.7007
    -4.5401  -4.5401   0.0094   0.0094   0.8899   0.8899   0.9909   0.9909
     1.4530   1.4530   2.0618   2.0618   2.6105   2.6105   3.1973   3.1973
     3.3906   3.3906   3.6027   3.6027   3.8183   3.8183   3.9544   3.9544
     4.3816   4.3816   6.5316   6.5316   6.5480   6.5480   6.9168   6.9168
     7.3227   7.3227

          k = 0.7622 0.0645 0.0000 ( 36505 PWs)   bands (ev):

   -44.1601 -44.1601 -22.2581 -22.2581 -22.2360 -22.2360 -22.0960 -22.0960
    -7.3927  -7.2505  -6.7833  -6.6979  -5.7638  -5.6287  -5.1567  -5.0986
    -4.4548  -4.4400  -0.3592   0.0250   0.0332   0.8601   0.9195   1.3300
     1.4684   1.5511   1.9870   2.0822   2.2592   2.3460   2.4306   2.7984
     3.0329   3.2254   3.3524   3.4305   3.6058   3.6765   3.7141   3.7479
     3.8561   4.6191   6.3443   6.4923   6.6974   6.9819   7.0172   7.0420
     7.4144   7.6667

          k = 0.7622 0.0645 0.1485 ( 36509 PWs)   bands (ev):

   -44.1601 -44.1601 -22.2581 -22.2581 -22.2360 -22.2360 -22.0960 -22.0960
    -7.3751  -7.2756  -6.7671  -6.7078  -5.7409  -5.6449  -5.1524  -5.1122
    -4.4514  -4.4411  -0.3206  -0.0501   0.1402   0.7267   0.9527   1.2682
     1.4760   1.5812   1.9476   1.9653   2.2156   2.5366   2.7255   2.8994
     2.9820   3.0077   3.3017   3.3233   3.5454   3.5797   3.7958   3.9644
     3.9685   4.4571   6.2148   6.4711   6.8223   6.9571   7.0400   7.1854
     7.2241   7.7109

          k = 0.7622 0.0645-0.2971 ( 36472 PWs)   bands (ev):

   -44.1601 -44.1601 -22.2581 -22.2581 -22.2360 -22.2360 -22.0960 -22.0960
    -7.3289  -7.3289  -6.7345  -6.7345  -5.6896  -5.6896  -5.1370  -5.1370
    -4.4451  -4.4451  -0.2034  -0.2034   0.4168   0.4168   1.0881   1.0881
     1.5474   1.5474   1.9199   1.9199   2.4836   2.4836   2.8634   2.8634
     2.9140   2.9140   3.2906   3.2906   3.5833   3.5833   4.0063   4.0063
     4.0663   4.0663   6.5369   6.5369   6.5775   6.5775   7.0709   7.0709
     7.6481   7.6482

          k = 1.0162 0.1290 0.0000 ( 36514 PWs)   bands (ev):

   -44.1597 -44.1597 -22.2561 -22.2561 -22.2454 -22.2454 -22.0949 -22.0949
    -6.8061  -6.7841  -6.4664  -6.4632  -6.4501  -6.4377  -5.1210  -5.1206
    -4.4077  -4.3760  -0.2179  -0.1899   0.0883   0.1131   1.0048   1.0305
     1.4743   1.6417   2.1846   2.3502   2.3853   2.3942   2.7501   2.8839
     2.8895   2.9233   3.1608   3.1890   3.2823   3.3149   3.4452   3.5793
     4.0419   4.3188   6.7289   6.8115   6.9201   6.9765   7.1780   7.2526
     7.2550   7.3036

          k = 1.0162 0.1290 0.1485 ( 36524 PWs)   bands (ev):

   -44.1597 -44.1597 -22.2561 -22.2561 -22.2454 -22.2454 -22.0949 -22.0949
    -6.7991  -6.7828  -6.5060  -6.4993  -6.4124  -6.4074  -5.1198  -5.1195
    -4.4049  -4.3825  -0.3012  -0.2910   0.2584   0.2652   1.0070   1.0214
     1.4641   1.5780   2.1042   2.2389   2.3175   2.3875   2.6104   2.6620
     2.9043   3.0120   3.1406   3.2270   3.4670   3.4974   3.6095   3.6577
     4.1437   4.3292   6.4204   6.4555   6.6308   6.7141   7.2680   7.2710
     7.5103   7.5631

          k = 1.0162 0.1290-0.2971 ( 36516 PWs)   bands (ev):

   -44.1597 -44.1597 -22.2561 -22.2561 -22.2454 -22.2454 -22.0949 -22.0949
    -6.7866  -6.7866  -6.5235  -6.5235  -6.3932  -6.3932  -5.1185  -5.1185
    -4.3955  -4.3955  -0.3541  -0.3541   0.4068   0.4068   0.9916   0.9916
     1.4965   1.4965   2.0192   2.0192   2.3238   2.3238   2.7183   2.7183
     2.8044   2.8044   3.2215   3.2215   3.6097   3.6097   3.7477   3.7477
     4.3325   4.3325   6.1141   6.1141   6.5704   6.5704   7.2787   7.2787
     7.6482   7.6483

          k =-0.7622-0.3224 0.0000 ( 36511 PWs)   bands (ev):

   -44.1601 -44.1601 -22.2581 -22.2581 -22.2360 -22.2360 -22.0960 -22.0960
    -7.3850  -7.2490  -6.7906  -6.7003  -5.7621  -5.6325  -5.1597  -5.0979
    -4.4758  -4.4175  -0.3778   0.0064   0.0375   0.8589   0.8807   1.3018
     1.5019   1.6667   2.0908   2.1192   2.2103   2.2945   2.4816   2.8612
     3.0472   3.1755   3.3400   3.4052   3.5101   3.6123   3.6924   3.7076
     4.0616   4.5744   6.3485   6.5676   6.6379   6.9116   7.0450   7.1301
     7.3995   7.5415

          k =-0.7622-0.3224 0.1485 ( 36492 PWs)   bands (ev):

   -44.1601 -44.1601 -22.2581 -22.2581 -22.2360 -22.2360 -22.0960 -22.0960
    -7.3681  -7.2728  -6.7744  -6.7114  -5.7395  -5.6474  -5.1551  -5.1123
    -4.4662  -4.4253  -0.3391  -0.0679   0.1468   0.7478   0.8978   1.2409
     1.5232   1.6034   2.0202   2.0886   2.2095   2.5398   2.6907   2.9355
     2.9728   3.0400   3.2485   3.2932   3.4740   3.5747   3.7983   3.8800
     4.0849   4.4792   6.1581   6.5347   6.7668   6.9570   7.0760   7.1668
     7.2654   7.5986

          k =-0.7622-0.3224-0.2971 ( 36508 PWs)   bands (ev):

   -44.1601 -44.1601 -22.2581 -22.2581 -22.2360 -22.2360 -22.0960 -22.0960
    -7.3237  -7.3237  -6.7405  -6.7405  -5.6895  -5.6895  -5.1385  -5.1385
    -4.4449  -4.4449  -0.2214  -0.2214   0.4300   0.4300   1.0509   1.0509
     1.5581   1.5581   2.0389   2.0389   2.4719   2.4719   2.8554   2.8554
     2.9736   2.9736   3.1894   3.1894   3.5841   3.5841   3.9218   3.9218
     4.1769   4.1769   6.4720   6.4720   6.5811   6.5811   7.1428   7.1428
     7.5565   7.5565

          k =-0.5081-0.2579 0.0000 ( 36480 PWs)   bands (ev):

   -44.1609 -44.1609 -22.2628 -22.2628 -22.2135 -22.2135 -22.0986 -22.0985
    -7.9952  -7.8603  -6.9276  -6.8320  -5.7748  -5.2149  -4.9742  -4.6066
    -4.5356  -4.5249  -0.2330   0.2893   0.7286   0.7713   1.1735   1.4209
     1.6473   1.6864   1.7723   2.0547   2.1353   2.5090   2.6327   3.3601
     3.4800   3.5049   3.5920   3.6942   3.7738   3.7829   4.1027   4.1851
     4.2770   4.8017   5.9997   6.2609   6.3121   6.7059   6.8020   7.0271
     7.3807   7.4684

          k =-0.5081-0.2579 0.1485 ( 36485 PWs)   bands (ev):

   -44.1609 -44.1609 -22.2628 -22.2628 -22.2135 -22.2135 -22.0986 -22.0985
    -7.9777  -7.8828  -6.9107  -6.8437  -5.7207  -5.3637  -4.8540  -4.6031
    -4.5816  -4.5068  -0.1697   0.2180   0.7294   0.8165   1.1332   1.2365
     1.5057   1.6562   1.9859   2.0589   2.3042   2.5691   2.9001   3.2602
     3.4171   3.5138   3.5377   3.6812   3.7341   3.7832   4.0036   4.2051
     4.2797   4.4928   6.3324   6.3398   6.4464   6.7054   6.8486   6.9269
     7.2268   7.4794

          k =-0.5081-0.2579-0.2971 ( 36478 PWs)   bands (ev):

   -44.1609 -44.1609 -22.2628 -22.2628 -22.2135 -22.2135 -22.0985 -22.0985
    -7.9327  -7.9327  -6.8746  -6.8746  -5.5708  -5.5708  -4.7099  -4.7099
    -4.5338  -4.5338   0.0081   0.0081   0.8991   0.8991   0.9781   0.9781
     1.5719   1.5719   2.0374   2.0374   2.6579   2.6579   3.1426   3.1426
     3.3613   3.3613   3.5980   3.5980   3.7231   3.7231   4.0141   4.0141
     4.3285   4.3285   6.4958   6.4958   6.6531   6.6531   6.8620   6.8620
     7.3135   7.3135

          k =-0.2541-0.1934 0.0000 ( 36410 PWs)   bands (ev):

   -44.1618 -44.1618 -22.2675 -22.2675 -22.1908 -22.1908 -22.1011 -22.1010
    -8.3810  -8.2421  -7.0734  -6.9539  -5.9300  -5.3414  -4.7343  -4.6602
    -4.6275  -3.9258   0.2357   0.6028   0.9550   1.0315   1.1307   1.3626
     1.3721   1.6109   1.7613   2.5813   2.6368   3.1375   3.4147   3.6643
     3.7401   3.7673   3.9093   3.9214   3.9547   4.2202   4.2815   4.4148
     4.4650   4.6967   6.0376   6.0632   6.2172   6.2356   6.4032   6.8387
     7.0359   7.1968

          k =-0.2541-0.1934 0.1485 ( 36427 PWs)   bands (ev):

   -44.1618 -44.1618 -22.2675 -22.2675 -22.1908 -22.1908 -22.1011 -22.1010
    -8.3629  -8.2651  -7.0520  -6.9681  -5.8723  -5.4815  -4.7221  -4.6637
    -4.4805  -4.0037   0.3040   0.5755   0.8356   1.0435   1.0861   1.2390
     1.4128   1.7234   2.0376   2.5817   2.6264   2.9229   3.4511   3.4891
     3.5592   3.8262   3.8879   3.9148   4.0543   4.2243   4.4182   4.4592
     4.5853   4.7896   5.9156   5.9751   6.1417   6.2550   6.2878   6.8559
     7.1795   7.2096

          k =-0.2541-0.1934-0.2971 ( 36422 PWs)   bands (ev):

   -44.1618 -44.1618 -22.2675 -22.2675 -22.1908 -22.1908 -22.1010 -22.1010
    -8.3165  -8.3165  -7.0065  -7.0065  -5.7083  -5.7083  -4.6928  -4.6928
    -4.2130  -4.2130   0.4672   0.4672   0.8143   0.8143   1.1732   1.1732
     1.6324   1.6324   2.4778   2.4778   2.6439   2.6439   3.3179   3.3179
     3.7481   3.7481   3.8659   3.8659   4.1833   4.1833   4.4404   4.4404
     4.8831   4.8831   5.7524   5.7524   6.1844   6.1844   6.5249   6.5249
     7.3234   7.3235

          k = 0.0000-0.1290 0.0000 ( 36417 PWs)   bands (ev):

   -44.1622 -44.1622 -22.2694 -22.2694 -22.1814 -22.1813 -22.1022 -22.1020
    -8.5126  -8.3716  -7.1361  -7.0044  -5.9822  -5.3885  -4.7686  -4.7043
    -4.5601  -3.7167   0.1590   0.8491   0.9038   1.1806   1.1929   1.4841
     1.5477   1.5563   2.2544   2.8485   2.9232   2.9388   3.1539   3.4845
     3.9372   4.0059   4.0114   4.0149   4.2853   4.4225   4.5100   4.6243
     4.7782   5.0829   5.6272   5.8399   5.8870   5.9930   6.2113   6.6125
     7.1894   7.2099

          k = 0.0000-0.1290 0.1485 ( 36419 PWs)   bands (ev):

   -44.1622 -44.1622 -22.2694 -22.2694 -22.1814 -22.1813 -22.1021 -22.1020
    -8.4943  -8.3950  -7.1124  -7.0199  -5.9248  -5.5298  -4.7567  -4.7116
    -4.3919  -3.8183   0.2405   0.8390   0.9429   0.9814   1.1622   1.4928
     1.5377   1.8367   1.9971   2.8608   2.9135   2.9535   3.3264   3.5645
     3.8726   3.9817   4.0217   4.0484   4.3249   4.3447   4.4941   4.6727
     4.7417   4.7657   5.8210   5.8570   5.8807   6.2220   6.3318   6.4978
     6.9852   7.0197

          k = 0.0000-0.1290-0.2971 ( 36464 PWs)   bands (ev):

   -44.1622 -44.1622 -22.2694 -22.2694 -22.1813 -22.1813 -22.1021 -22.1021
    -8.4472  -8.4472  -7.0621  -7.0621  -5.7600  -5.7600  -4.7335  -4.7335
    -4.0792  -4.0792   0.4773   0.4773   1.0327   1.0327   1.3732   1.3732
     1.5146   1.5146   2.5012   2.5012   2.8884   2.8884   3.6784   3.6784
     3.8701   3.8701   4.1668   4.1668   4.1692   4.1692   4.4805   4.4805
     4.7298   4.7298   5.8555   5.8555   6.1841   6.1841   6.6316   6.6316
     6.6405   6.6405

          k = 1.0162 0.0000 0.0000 ( 36499 PWs)   bands (ev):

   -44.1597 -44.1597 -22.2561 -22.2561 -22.2454 -22.2454 -22.0949 -22.0949
    -6.8061  -6.7841  -6.4664  -6.4631  -6.4500  -6.4378  -5.1210  -5.1206
    -4.4077  -4.3760  -0.2218  -0.1859   0.0866   0.1148   1.0001   1.0358
     1.4831   1.6295   2.1805   2.3666   2.3759   2.3938   2.7376   2.8994
     2.9047   2.9215   3.1261   3.2204   3.2803   3.2897   3.4639   3.5766
     4.0255   4.3355   6.7232   6.8222   6.9087   6.9875   7.2351   7.2482
     7.2528   7.2564

          k = 1.0162 0.0000 0.1485 ( 36485 PWs)   bands (ev):

   -44.1597 -44.1597 -22.2561 -22.2561 -22.2454 -22.2454 -22.0949 -22.0949
    -6.7991  -6.7828  -6.5060  -6.4993  -6.4124  -6.4075  -5.1198  -5.1195
    -4.4049  -4.3825  -0.3029  -0.2896   0.2597   0.2643   1.0046   1.0238
     1.4722   1.5695   2.1087   2.2248   2.3231   2.3872   2.6119   2.6679
     2.8951   3.0227   3.1432   3.2200   3.4751   3.4785   3.6270   3.6533
     4.1271   4.3453   6.4194   6.4638   6.6270   6.7155   7.2693   7.2712
     7.5222   7.5505

          k = 1.0162 0.0000-0.2971 ( 36514 PWs)   bands (ev):

   -44.1597 -44.1597 -22.2561 -22.2561 -22.2454 -22.2454 -22.0949 -22.0949
    -6.7866  -6.7866  -6.5235  -6.5235  -6.3932  -6.3932  -5.1185  -5.1185
    -4.3955  -4.3955  -0.3542  -0.3542   0.4071   0.4071   0.9913   0.9913
     1.4978   1.4978   2.0191   2.0191   2.3207   2.3207   2.7060   2.7060
     2.8223   2.8223   3.2161   3.2161   3.6113   3.6113   3.7475   3.7475
     4.3333   4.3333   6.1175   6.1175   6.5694   6.5694   7.2793   7.2793
     7.6471   7.6472

          k = 1.2703 0.0645 0.0000 ( 36468 PWs)   bands (ev):

   -44.1601 -44.1601 -22.2581 -22.2581 -22.2360 -22.2360 -22.0960 -22.0960
    -7.3818  -7.2484  -6.7940  -6.7009  -5.7614  -5.6341  -5.1609  -5.0977
    -4.4806  -4.4121  -0.3853   0.0012   0.0367   0.8396   0.8891   1.2922
     1.5013   1.7220   2.1387   2.1395   2.2564   2.2702   2.4071   2.8928
     3.0468   3.1854   3.3584   3.3908   3.5110   3.5631   3.6481   3.6797
     4.1637   4.5439   6.3501   6.5913   6.6359   6.8550   7.0725   7.2014
     7.3721   7.5138

          k = 1.2703 0.0645 0.1485 ( 36490 PWs)   bands (ev):

   -44.1601 -44.1601 -22.2581 -22.2581 -22.2360 -22.2360 -22.0960 -22.0960
    -7.3651  -7.2716  -6.7777  -6.7127  -5.7389  -5.6484  -5.1561  -5.1124
    -4.4696  -4.4215  -0.3466  -0.0747   0.1489   0.7563   0.8800   1.2304
     1.5306   1.6216   2.0542   2.1262   2.2336   2.5339   2.6467   2.9586
     2.9744   3.0702   3.2420   3.2588   3.4807   3.5351   3.7840   3.8441
     4.1511   4.4851   6.1378   6.5658   6.7369   6.9535   7.0663   7.2238
     7.2678   7.5399

          k = 1.2703 0.0645-0.2971 ( 36480 PWs)   bands (ev):

   -44.1601 -44.1601 -22.2581 -22.2581 -22.2360 -22.2360 -22.0960 -22.0960
    -7.3215  -7.3215  -6.7431  -6.7431  -5.6895  -5.6895  -5.1392  -5.1392
    -4.4448  -4.4448  -0.2286  -0.2286   0.4350   0.4350   1.0386   1.0386
     1.5639   1.5639   2.0798   2.0798   2.4782   2.4782   2.8559   2.8559
     2.9897   2.9897   3.1545   3.1545   3.5767   3.5767   3.8881   3.8881
     4.2220   4.2220   6.4509   6.4509   6.5795   6.5795   7.1779   7.1779
     7.4930   7.4931

          k =-0.5081-0.3869 0.0000 ( 36463 PWs)   bands (ev):

   -44.1609 -44.1609 -22.2628 -22.2628 -22.2135 -22.2135 -22.0986 -22.0985
    -7.9922  -7.8596  -6.9283  -6.8312  -5.7816  -5.2171  -4.9792  -4.6135
    -4.5262  -4.5260  -0.2422   0.3060   0.7212   0.7515   1.1818   1.5433
     1.6579   1.7177   1.8058   2.0317   2.1538   2.5066   2.6161   3.2786
     3.4997   3.5159   3.5823   3.5939   3.7237   3.7931   4.0860   4.1761
     4.2641   4.8263   5.9889   6.1915   6.3776   6.8052   6.9391   6.9418
     7.3536   7.4252

          k =-0.5081-0.3869 0.1485 ( 36477 PWs)   bands (ev):

   -44.1609 -44.1609 -22.2628 -22.2628 -22.2135 -22.2135 -22.0986 -22.0985
    -7.9749  -7.8816  -6.9116  -6.8434  -5.7266  -5.3662  -4.8604  -4.6034
    -4.5854  -4.5001  -0.1768   0.2287   0.7195   0.8076   1.1319   1.2592
     1.6290   1.7291   1.9478   2.0276   2.3620   2.5608   2.8853   3.2023
     3.3755   3.5216   3.5350   3.6023   3.7283   3.7480   4.0653   4.1447
     4.2447   4.5241   6.2773   6.3785   6.4370   6.7941   6.8324   6.9971
     7.1807   7.4530

          k =-0.5081-0.3869-0.2971 ( 36492 PWs)   bands (ev):

   -44.1609 -44.1609 -22.2628 -22.2628 -22.2135 -22.2135 -22.0985 -22.0985
    -7.9306  -7.9306  -6.8753  -6.8753  -5.5747  -5.5747  -4.7161  -4.7161
    -4.5297  -4.5297   0.0071   0.0071   0.9060   0.9060   0.9691   0.9691
     1.6807   1.6807   1.9996   1.9996   2.7114   2.7114   3.0585   3.0585
     3.3530   3.3530   3.5838   3.5838   3.6841   3.6841   4.0415   4.0415
     4.3025   4.3025   6.4661   6.4661   6.7044   6.7044   6.8414   6.8414
     7.3294   7.3294

          k =-0.2541-0.3224 0.0000 ( 36485 PWs)   bands (ev):

   -44.1618 -44.1618 -22.2675 -22.2675 -22.1908 -22.1908 -22.1011 -22.1009
    -8.3780  -8.2414  -7.0699  -6.9515  -5.9455  -5.3483  -4.7551  -4.6487
    -4.6222  -3.9266   0.2609   0.5945   0.9625   1.0709   1.2067   1.4067
     1.4097   1.6971   1.7817   2.5186   2.5932   3.1708   3.4923   3.5850
     3.6349   3.6482   3.7881   3.9231   3.9592   4.1443   4.1808   4.3451
     4.3999   4.7550   6.0913   6.1572   6.2052   6.3321   6.4433   6.9079
     6.9584   7.1161

          k =-0.2541-0.3224 0.1485 ( 36445 PWs)   bands (ev):

   -44.1618 -44.1618 -22.2675 -22.2675 -22.1908 -22.1908 -22.1011 -22.1010
    -8.3602  -8.2640  -7.0491  -6.9659  -5.8862  -5.4890  -4.7373  -4.6561
    -4.4779  -4.0039   0.3301   0.5729   0.8358   1.0723   1.1892   1.2909
     1.4493   1.7474   2.0970   2.5212   2.5852   2.9534   3.4376   3.4749
     3.6308   3.6312   3.6839   3.9146   4.0053   4.1619   4.3523   4.3934
     4.5654   4.8356   5.9277   5.9664   6.1846   6.3236   6.3955   6.8123
     7.1673   7.1952

          k =-0.2541-0.3224-0.2971 ( 36442 PWs)   bands (ev):

   -44.1618 -44.1618 -22.2675 -22.2675 -22.1908 -22.1908 -22.1010 -22.1010
    -8.3145  -8.3145  -7.0044  -7.0044  -5.7187  -5.7187  -4.6966  -4.6966
    -4.2119  -4.2119   0.4856   0.4856   0.8247   0.8247   1.2577   1.2577
     1.6559   1.6559   2.4823   2.4823   2.6357   2.6357   3.3093   3.3093
     3.6219   3.6219   3.8253   3.8253   4.1253   4.1253   4.3767   4.3767
     4.9039   4.9039   5.7387   5.7387   6.2325   6.2325   6.5536   6.5536
     7.3148   7.3148

          k = 0.0000-0.2579 0.0000 ( 36445 PWs)   bands (ev):

   -44.1622 -44.1622 -22.2694 -22.2694 -22.1814 -22.1813 -22.1022 -22.1020
    -8.5099  -8.3710  -7.1311  -7.0018  -5.9993  -5.3969  -4.7860  -4.6912
    -4.5601  -3.7173   0.1863   0.8554   1.0111   1.2071   1.2479   1.4835
     1.5470   1.6290   2.2455   2.8659   2.9333   2.9438   3.1575   3.5910
     3.6608   3.7152   3.9775   3.9952   4.1614   4.3874   4.4234   4.5906
     4.7744   5.0584   5.6685   5.9251   5.9748   6.0626   6.2315   6.6545
     7.0714   7.1895

          k = 0.0000-0.2579 0.1485 ( 36452 PWs)   bands (ev):

   -44.1622 -44.1622 -22.2694 -22.2694 -22.1814 -22.1813 -22.1021 -22.1020
    -8.4918  -8.3940  -7.1081  -7.0173  -5.9403  -5.5388  -4.7711  -4.7027
    -4.3914  -3.8185   0.2699   0.8777   0.9830   1.0515   1.2224   1.4922
     1.5370   1.8499   2.0384   2.8772   2.9247   2.9695   3.3015   3.6145
     3.6932   3.7373   3.9250   4.0211   4.2238   4.3106   4.3828   4.6554
     4.7340   4.7615   5.8783   5.9173   5.9609   6.2383   6.3486   6.5372
     6.9066   6.9887

          k = 0.0000-0.2579-0.2971 ( 36454 PWs)   bands (ev):

   -44.1622 -44.1622 -22.2694 -22.2694 -22.1813 -22.1813 -22.1021 -22.1021
    -8.4453  -8.4453  -7.0591  -7.0591  -5.7719  -5.7719  -4.7366  -4.7366
    -4.0788  -4.0788   0.5121   0.5121   1.1109   1.1109   1.3847   1.3847
     1.5140   1.5140   2.5360   2.5360   2.9023   2.9023   3.5844   3.5844
     3.7844   3.7844   4.0642   4.0642   4.1434   4.1434   4.4047   4.4047
     4.7225   4.7225   5.9204   5.9204   6.2247   6.2247   6.5877   6.5877
     6.6416   6.6416

          k = 1.5243 0.0000 0.0000 ( 36439 PWs)   bands (ev):

   -44.1609 -44.1609 -22.2628 -22.2628 -22.2135 -22.2135 -22.0986 -22.0985
    -7.9909  -7.8593  -6.9288  -6.8307  -5.7845  -5.2180  -4.9813  -4.6157
    -4.5267  -4.5226  -0.2460   0.3128   0.7227   0.7390   1.1853   1.6106
     1.6731   1.7310   1.7890   2.0208   2.1829   2.4860   2.6085   3.2524
     3.4866   3.5356   3.5458   3.5954   3.7011   3.7997   4.0380   4.2086
     4.2584   4.8356   5.9849   6.1593   6.4092   6.8498   6.9036   7.0110
     7.3264   7.4777

          k = 1.5243 0.0000 0.1485 ( 36476 PWs)   bands (ev):

   -44.1609 -44.1609 -22.2628 -22.2628 -22.2135 -22.2135 -22.0986 -22.0985
    -7.9738  -7.8811  -6.9121  -6.8432  -5.7291  -5.3672  -4.8631  -4.6036
    -4.5866  -4.4976  -0.1797   0.2330   0.7165   0.8027   1.1322   1.2681
     1.7183   1.7428   1.9229   2.0028   2.4164   2.5250   2.8754   3.1890
     3.3408   3.5316   3.5329   3.5809   3.7277   3.7327   4.0564   4.1536
     4.2273   4.5368   6.2502   6.3964   6.4359   6.7941   6.8397   7.0744
     7.1383   7.4725

          k = 1.5243 0.0000-0.2971 ( 36508 PWs)   bands (ev):

   -44.1609 -44.1609 -22.2628 -22.2628 -22.2135 -22.2135 -22.0985 -22.0985
    -7.9298  -7.9298  -6.8755  -6.8755  -5.5763  -5.5763  -4.7186  -4.7186
    -4.5280  -4.5280   0.0067   0.0067   0.9092   0.9092   0.9651   0.9651
     1.7416   1.7416   1.9692   1.9692   2.7466   2.7466   3.0044   3.0044
     3.3527   3.3527   3.5755   3.5755   3.6744   3.6744   4.0466   4.0466
     4.2974   4.2974   6.4539   6.4539   6.7094   6.7094   6.8448   6.8448
     7.3480   7.3481

          k =-0.2541-0.4514 0.0000 ( 36444 PWs)   bands (ev):

   -44.1618 -44.1618 -22.2675 -22.2675 -22.1908 -22.1908 -22.1011 -22.1009
    -8.3759  -8.2409  -7.0678  -6.9492  -5.9567  -5.3532  -4.7677  -4.6357
    -4.6254  -3.9272   0.2745   0.5890   0.9681   1.0855   1.3077   1.4248
     1.4307   1.7782   1.8122   2.4529   2.5234   3.2369   3.4379   3.4693
     3.5484   3.6246   3.8602   3.9240   3.9626   4.0486   4.1062   4.2733
     4.3847   4.7930   6.1247   6.1837   6.2390   6.3957   6.4687   6.8815
     6.9532   7.0715

          k =-0.2541-0.4514 0.1485 ( 36461 PWs)   bands (ev):

   -44.1618 -44.1618 -22.2675 -22.2675 -22.1908 -22.1908 -22.1011 -22.1010
    -8.3583  -8.2632  -7.0473  -6.9640  -5.8961  -5.4943  -4.7467  -4.6518
    -4.4764  -4.0040   0.3447   0.5711   0.8358   1.0944   1.2515   1.3551
     1.4846   1.7754   2.1594   2.4585   2.5114   2.9967   3.3714   3.4142
     3.5184   3.5826   3.7651   3.9118   3.9847   4.0530   4.3053   4.3717
     4.5533   4.8659   5.9352   5.9597   6.2211   6.3578   6.4598   6.7573
     7.1779   7.1866

          k =-0.2541-0.4514-0.2971 ( 36490 PWs)   bands (ev):

   -44.1618 -44.1618 -22.2675 -22.2675 -22.1908 -22.1908 -22.1010 -22.1010
    -8.3130  -8.3130  -7.0029  -7.0029  -5.7260  -5.7260  -4.6994  -4.6994
    -4.2110  -4.2110   0.4960   0.4960   0.8300   0.8300   1.3306   1.3306
     1.6831   1.6831   2.4693   2.4693   2.6285   2.6285   3.2825   3.2825
     3.4929   3.4929   3.8946   3.8946   4.0501   4.0501   4.3418   4.3418
     4.9171   4.9171   5.7316   5.7316   6.2441   6.2441   6.5748   6.5748
     7.3138   7.3138

          k = 0.0000-0.3869 0.0000 ( 36477 PWs)   bands (ev):

   -44.1622 -44.1622 -22.2694 -22.2694 -22.1814 -22.1813 -22.1022 -22.1020
    -8.5073  -8.3704  -7.1266  -6.9984  -6.0168  -5.4052  -4.8008  -4.6793
    -4.5614  -3.7178   0.2062   0.8640   1.1537   1.2307   1.3134   1.4828
     1.5463   1.7046   2.2378   2.8848   2.9430   2.9581   3.1549   3.3346
     3.4520   3.7433   3.9487   4.0187   4.0290   4.2256   4.4243   4.5571
     4.7708   5.0403   5.7101   5.9844   6.0301   6.1488   6.2520   6.6907
     6.9183   7.1895

          k = 0.0000-0.3869 0.1485 ( 36452 PWs)   bands (ev):

   -44.1622 -44.1622 -22.2694 -22.2694 -22.1814 -22.1813 -22.1021 -22.1020
    -8.4894  -8.3930  -7.1043  -7.0142  -5.9560  -5.5477  -4.7829  -4.6963
    -4.3910  -3.8186   0.2916   0.9081   0.9967   1.1924   1.2932   1.4915
     1.5363   1.8618   2.0879   2.8947   2.9357   2.9891   3.2359   3.3468
     3.4712   3.8209   3.9569   3.9934   4.1110   4.2280   4.2947   4.6397
     4.7309   4.7574   5.9355   5.9619   6.0085   6.2572   6.3657   6.5669
     6.7816   6.9922

          k = 0.0000-0.3869-0.2971 ( 36454 PWs)   bands (ev):

   -44.1622 -44.1622 -22.2694 -22.2694 -22.1813 -22.1813 -22.1021 -22.1021
    -8.4435  -8.4435  -7.0560  -7.0560  -5.7838  -5.7838  -4.7397  -4.7397
    -4.0783  -4.0783   0.5387   0.5387   1.2123   1.2123   1.4028   1.4028
     1.5133   1.5133   2.5774   2.5774   2.9166   2.9166   3.3088   3.3088
     3.8295   3.8295   4.0229   4.0229   4.1192   4.1192   4.3258   4.3258
     4.7157   4.7157   5.9581   5.9581   6.2716   6.2716   6.5182   6.5182
     6.6518   6.6518

          k =-2.0325 0.0000 0.0000 ( 36452 PWs)   bands (ev):

   -44.1622 -44.1622 -22.2694 -22.2694 -22.1814 -22.1813 -22.1022 -22.1020
    -8.5062  -8.3701  -7.1249  -6.9967  -6.0241  -5.4086  -4.8064  -4.6744
    -4.5624  -3.7180   0.2123   0.8682   1.2397   1.2726   1.2894   1.4825
     1.5460   1.7487   2.2354   2.8931   2.9467   2.9672   3.1163   3.2235
     3.3504   3.8945   3.9145   3.9367   4.0276   4.1288   4.4246   4.5433
     4.7693   5.0336   5.7272   6.0038   6.0471   6.1945   6.2606   6.7030
     6.8469   7.1895

          k =-2.0325 0.0000 0.1485 ( 36456 PWs)   bands (ev):

   -44.1622 -44.1622 -22.2694 -22.2694 -22.1814 -22.1813 -22.1021 -22.1020
    -8.4884  -8.3926  -7.1028  -7.0127  -5.9625  -5.5513  -4.7873  -4.6941
    -4.3909  -3.8187   0.2982   0.9207   1.0017   1.2862   1.3047   1.4912
     1.5361   1.8668   2.1151   2.9024   2.9402   2.9937   3.1402   3.2537
     3.4078   3.9221   3.9644   3.9817   4.0685   4.1182   4.2877   4.6337
     4.7298   4.7557   5.9625   5.9764   6.0213   6.2685   6.3729   6.5736
     6.7266   6.9936

          k =-2.0325 0.0000-0.2971 ( 36460 PWs)   bands (ev):

   -44.1622 -44.1622 -22.2694 -22.2694 -22.1813 -22.1813 -22.1021 -22.1021
    -8.4428  -8.4428  -7.0547  -7.0547  -5.7887  -5.7887  -4.7410  -4.7410
    -4.0781  -4.0781   0.5475   0.5475   1.2604   1.2604   1.4155   1.4155
     1.5130   1.5130   2.5991   2.5991   2.9227   2.9227   3.1784   3.1784
     3.8578   3.8578   4.0076   4.0076   4.1090   4.1090   4.2924   4.2924
     4.7130   4.7130   5.9692   5.9692   6.2958   6.2958   6.4818   6.4818
     6.6561   6.6561

     the Fermi energy is     5.4434 ev

!    total energy              =   -4240.90869795 Ry

     total all-electron energy =   -150287.602393 Ry
     estimated scf accuracy    <          1.5E-12 Ry
     smearing contrib. (-TS)   =       0.00000000 Ry
     internal energy E=F+TS    =   -4240.90869795 Ry

     The total energy is F=E-TS. E is the sum of the following terms:
     one-electron contribution =    -169.35879498 Ry
     hartree contribution      =     118.11326905 Ry
     xc contribution           =    -201.67845054 Ry
     ewald contribution        =    -220.43130708 Ry
     one-center paw contrib.   =   -3767.55341440 Ry

     convergence has been achieved in  17 iterations

     Forces acting on atoms (cartesian axes, Ry/au):

     atom    1 type  1   force =    -0.00000000    0.02570737    0.00000000
     atom    2 type  1   force =     0.00000000   -0.02570737    0.00000000
     atom    3 type  2   force =     0.00000000   -0.00041528    0.00000000
     atom    4 type  2   force =     0.00000000    0.00041528    0.00000000
     atom    5 type  2   force =     0.00000000   -0.00601217   -0.00444039
     atom    6 type  2   force =     0.00000000    0.00601217    0.00444039
     atom    7 type  2   force =     0.00000000   -0.00601217    0.00444039
     atom    8 type  2   force =     0.00000000    0.00601217   -0.00444039
     atom    9 type  2   force =     0.00000000   -0.05047517   -0.06125193
     atom   10 type  2   force =     0.00000000    0.05047517    0.06125193
     atom   11 type  2   force =    -0.00000000   -0.05047517    0.06125193
     atom   12 type  2   force =     0.00000000    0.05047517   -0.06125193

     Total force =     0.163535     Total SCF correction =     0.000002


     Computing stress (Cartesian axis) and pressure

          total   stress  (Ry/bohr**3)                   (kbar)     P=       14.73
   0.00012746  -0.00000000   0.00000000           18.75       -0.00        0.00
  -0.00000000   0.00004708   0.00000000           -0.00        6.93        0.00
   0.00000000   0.00000000   0.00012587            0.00        0.00       18.52

 
     init_run     :     19.38s CPU     19.88s WALL (       1 calls)
     electrons    :    963.62s CPU    975.31s WALL (       1 calls)
     forces       :      6.49s CPU      6.71s WALL (       1 calls)
     stress       :     44.95s CPU     45.58s WALL (       1 calls)

     Called by init_run:
     wfcinit      :     15.07s CPU     15.24s WALL (       1 calls)
     potinit      :      1.27s CPU      1.32s WALL (       1 calls)
     hinit0       :      1.67s CPU      1.72s WALL (       1 calls)

     Called by electrons:
     c_bands      :    798.16s CPU    802.07s WALL (      18 calls)
     sum_band     :    138.48s CPU    142.63s WALL (      18 calls)
     v_of_rho     :      5.85s CPU      6.13s WALL (      18 calls)
     newd         :     14.95s CPU     18.46s WALL (      18 calls)
     PAW_pot      :      6.03s CPU      6.04s WALL (      18 calls)
     mix_rho      :      0.91s CPU      0.94s WALL (      18 calls)

     Called by c_bands:
     init_us_2    :     12.01s CPU     12.06s WALL (    2457 calls)
     cegterg      :    723.45s CPU    726.73s WALL (    1134 calls)

     Called by *egterg:
     cdiaghg      :     26.41s CPU     26.50s WALL (    7793 calls)
     h_psi        :    558.21s CPU    561.27s WALL (    7919 calls)
     s_psi        :     45.28s CPU     45.34s WALL (    7919 calls)
     g_psi        :      1.98s CPU      2.00s WALL (    6722 calls)

     Called by h_psi:
     h_psi:calbec :     38.88s CPU     38.97s WALL (    7919 calls)
     vloc_psi     :    471.00s CPU    473.79s WALL (    7919 calls)
     add_vuspsi   :     45.06s CPU     45.15s WALL (    7919 calls)

     General routines
     calbec       :     51.28s CPU     51.41s WALL (    9368 calls)
     fft          :      3.66s CPU      3.79s WALL (     258 calls)
     ffts         :      0.09s CPU      0.09s WALL (      36 calls)
     fftw         :    429.02s CPU    431.49s WALL (  410708 calls)
     interpolate  :      0.33s CPU      0.33s WALL (      18 calls)
 
     Parallel routines
 
     PWSCF        :  17m14.70s CPU  17m27.84s WALL

 
   This run was terminated on:  15:33:57  19Nov2021            

=------------------------------------------------------------------------------=
   JOB DONE.
=------------------------------------------------------------------------------=
