
     Program PWSCF v.6.8 starts on 19Nov2021 at 15:16:52 

     This program is part of the open-source Quantum ESPRESSO suite
     for quantum simulation of materials; please cite
         "P. Giannozzi et al., J. Phys.:Condens. Matter 21 395502 (2009);
         "P. Giannozzi et al., J. Phys.:Condens. Matter 29 465901 (2017);
         "P. Giannozzi et al., J. Chem. Phys. 152 154105 (2020);
          URL http://www.quantum-espresso.org", 
     in publications or presentations arising from this work. More details at
     http://www.quantum-espresso.org/quote

     Parallel version (MPI), running on    10 processors

     MPI processes distributed on     1 nodes
     R & G space division:  proc/nbgrp/npool/nimage =      10
     70826 MiB available memory on the printing compute node when the environment starts
 
     Waiting for input...
     Reading input from standard input

     Current dimensions of program PWSCF are:
     Max number of different atomic species (ntypx) = 10
     Max number of k-points (npk) =  40000
     Max angular momentum in pseudopotentials (lmaxx) =  4
     file Zr.pbe-spn-kjpaw_psl.1.0.0.UPF: wavefunction(s)  4S 4P renormalized
     file Te.pbe-n-kjpaw_psl.1.0.0.UPF: wavefunction(s)  5S 5P renormalized
     Message from routine setup:
     using ibrav=0 with symmetry is DISCOURAGED, use correct ibrav instead

     Subspace diagonalization in iterative solution of the eigenvalue problem:
     a serial algorithm will be used

 
     Parallelization info
     --------------------
     sticks:   dense  smooth     PW     G-vecs:    dense   smooth      PW
     Min         734     293     87               115340    29174    4753
     Max         735     295     88               115345    29176    4760
     Sum        7345    2937    873              1153415   291749   47557
 
     Using Slab Decomposition
 


     bravais-lattice index     =            0
     lattice parameter (alat)  =      15.5510  a.u.
     unit-cell volume          =    3018.5011 (a.u.)^3
     number of atoms/cell      =           12
     number of atomic types    =            2
     number of electrons       =        84.00
     number of Kohn-Sham states=           50
     kinetic-energy cutoff     =      80.0000  Ry
     charge density cutoff     =     800.0000  Ry
     scf convergence threshold =      1.0E-10
     mixing beta               =       0.7000
     number of iterations used =            8  plain     mixing
     Exchange-correlation= SLA  PW   PBX  PBC
                           (   1   4   3   4   0   0   0)

     celldm(1)=  15.551040  celldm(2)=   0.000000  celldm(3)=   0.000000
     celldm(4)=   0.000000  celldm(5)=   0.000000  celldm(6)=   0.000000

     crystal axes: (cart. coord. in units of alat)
               a(1) = (   0.246007  -0.969268   0.000000 )  
               a(2) = (   0.246007   0.969268   0.000000 )  
               a(3) = (   0.000000   0.000000   1.683031 )  

     reciprocal axes: (cart. coord. in units 2 pi/alat)
               b(1) = (  2.032465 -0.515853  0.000000 )  
               b(2) = (  2.032465  0.515853  0.000000 )  
               b(3) = (  0.000000  0.000000  0.594166 )  


     PseudoPot. # 1 for Zr read from file:
     pseudo/Zr.pbe-spn-kjpaw_psl.1.0.0.UPF
     MD5 check sum: 02112c41713a0468aff2bb39ef194e36
     Pseudo is Projector augmented-wave + core cor, Zval = 12.0
     Generated using &quot;atomic&quot; code by A. Dal Corso  v.6.2.2
     Shape of augmentation charge: PSQ
     Using radial grid of 1225 points,  6 beta functions with: 
                l(1) =   0
                l(2) =   0
                l(3) =   1
                l(4) =   1
                l(5) =   2
                l(6) =   2
     Q(r) pseudized with 0 coefficients 


     PseudoPot. # 2 for Te read from file:
     pseudo/Te.pbe-n-kjpaw_psl.1.0.0.UPF
     MD5 check sum: 66247bff2bd9dbf220fbb0bf5ab56e9d
     Pseudo is Projector augmented-wave + core cor, Zval =  6.0
     Generated using &quot;atomic&quot; code by A. Dal Corso  v.6.3
     Shape of augmentation charge: PSQ
     Using radial grid of 1245 points,  6 beta functions with: 
                l(1) =   0
                l(2) =   0
                l(3) =   1
                l(4) =   1
                l(5) =   2
                l(6) =   2
     Q(r) pseudized with 0 coefficients 


     atomic species   valence    mass     pseudopotential
        Zr            12.00    91.22000     Zr( 1.00)
        Te             6.00   127.60000     Te( 1.00)

      8 Sym. Ops., with inversion, found ( 4 have fractional translation)



   Cartesian axes

     site n.     atom                  positions (alat units)
         1           Zr  tau(   1) = (   0.0000000   0.5969607   0.4207578  )
         2           Zr  tau(   2) = (   0.2460067   0.3723075   1.2622733  )
         3           Te  tau(   3) = (   0.2460067   0.3340746   0.4207578  )
         4           Te  tau(   4) = (   0.0000000   0.6351935   1.2622733  )
         5           Te  tau(   5) = (   0.2460067   0.8137618   0.2547501  )
         6           Te  tau(   6) = (   0.0000000   0.1555063   1.4282810  )
         7           Te  tau(   7) = (   0.2460067   0.8137618   0.5867655  )
         8           Te  tau(   8) = (   0.0000000   0.1555063   1.0962656  )
         9           Te  tau(   9) = (   0.0000000   0.4300397   0.7453345  )
        10           Te  tau(  10) = (   0.2460067   0.5392284   0.9376965  )
        11           Te  tau(  11) = (   0.0000000   0.4300397   0.0961810  )
        12           Te  tau(  12) = (   0.2460067   0.5392284   1.5868500  )

     number of k points=    63  Methfessel-Paxton smearing, width (Ry)=  0.0030
                       cart. coord. in units 2pi/alat
        k(    1) = (   0.0000000   0.0000000   0.0000000), wk =   0.0078125
        k(    2) = (   0.0000000   0.0000000   0.1485415), wk =   0.0156250
        k(    3) = (   0.0000000   0.0000000  -0.2970830), wk =   0.0078125
        k(    4) = (   0.2540581   0.0644816   0.0000000), wk =   0.0312500
        k(    5) = (   0.2540581   0.0644816   0.1485415), wk =   0.0625000
        k(    6) = (   0.2540581   0.0644816  -0.2970830), wk =   0.0312500
        k(    7) = (   0.5081162   0.1289633   0.0000000), wk =   0.0312500
        k(    8) = (   0.5081162   0.1289633   0.1485415), wk =   0.0625000
        k(    9) = (   0.5081162   0.1289633  -0.2970830), wk =   0.0312500
        k(   10) = (   0.7621743   0.1934449   0.0000000), wk =   0.0312500
        k(   11) = (   0.7621743   0.1934449   0.1485415), wk =   0.0625000
        k(   12) = (   0.7621743   0.1934449  -0.2970830), wk =   0.0312500
        k(   13) = (  -1.0162324  -0.2579266   0.0000000), wk =   0.0156250
        k(   14) = (  -1.0162324  -0.2579266   0.1485415), wk =   0.0312500
        k(   15) = (  -1.0162324  -0.2579266  -0.2970830), wk =   0.0156250
        k(   16) = (   0.5081162   0.0000000   0.0000000), wk =   0.0156250
        k(   17) = (   0.5081162   0.0000000   0.1485415), wk =   0.0312500
        k(   18) = (   0.5081162   0.0000000  -0.2970830), wk =   0.0156250
        k(   19) = (   0.7621743   0.0644816   0.0000000), wk =   0.0312500
        k(   20) = (   0.7621743   0.0644816   0.1485415), wk =   0.0625000
        k(   21) = (   0.7621743   0.0644816  -0.2970830), wk =   0.0312500
        k(   22) = (   1.0162324   0.1289633   0.0000000), wk =   0.0312500
        k(   23) = (   1.0162324   0.1289633   0.1485415), wk =   0.0625000
        k(   24) = (   1.0162324   0.1289633  -0.2970830), wk =   0.0312500
        k(   25) = (  -0.7621743  -0.3224082   0.0000000), wk =   0.0312500
        k(   26) = (  -0.7621743  -0.3224082   0.1485415), wk =   0.0625000
        k(   27) = (  -0.7621743  -0.3224082  -0.2970830), wk =   0.0312500
        k(   28) = (  -0.5081162  -0.2579266   0.0000000), wk =   0.0312500
        k(   29) = (  -0.5081162  -0.2579266   0.1485415), wk =   0.0625000
        k(   30) = (  -0.5081162  -0.2579266  -0.2970830), wk =   0.0312500
        k(   31) = (  -0.2540581  -0.1934449   0.0000000), wk =   0.0312500
        k(   32) = (  -0.2540581  -0.1934449   0.1485415), wk =   0.0625000
        k(   33) = (  -0.2540581  -0.1934449  -0.2970830), wk =   0.0312500
        k(   34) = (   0.0000000  -0.1289633   0.0000000), wk =   0.0156250
        k(   35) = (   0.0000000  -0.1289633   0.1485415), wk =   0.0312500
        k(   36) = (   0.0000000  -0.1289633  -0.2970830), wk =   0.0156250
        k(   37) = (   1.0162324   0.0000000   0.0000000), wk =   0.0156250
        k(   38) = (   1.0162324   0.0000000   0.1485415), wk =   0.0312500
        k(   39) = (   1.0162324   0.0000000  -0.2970830), wk =   0.0156250
        k(   40) = (   1.2702905   0.0644816   0.0000000), wk =   0.0312500
        k(   41) = (   1.2702905   0.0644816   0.1485415), wk =   0.0625000
        k(   42) = (   1.2702905   0.0644816  -0.2970830), wk =   0.0312500
        k(   43) = (  -0.5081162  -0.3868899   0.0000000), wk =   0.0312500
        k(   44) = (  -0.5081162  -0.3868899   0.1485415), wk =   0.0625000
        k(   45) = (  -0.5081162  -0.3868899  -0.2970830), wk =   0.0312500
        k(   46) = (  -0.2540581  -0.3224082   0.0000000), wk =   0.0312500
        k(   47) = (  -0.2540581  -0.3224082   0.1485415), wk =   0.0625000
        k(   48) = (  -0.2540581  -0.3224082  -0.2970830), wk =   0.0312500
        k(   49) = (   0.0000000  -0.2579266   0.0000000), wk =   0.0156250
        k(   50) = (   0.0000000  -0.2579266   0.1485415), wk =   0.0312500
        k(   51) = (   0.0000000  -0.2579266  -0.2970830), wk =   0.0156250
        k(   52) = (   1.5243485   0.0000000   0.0000000), wk =   0.0156250
        k(   53) = (   1.5243485   0.0000000   0.1485415), wk =   0.0312500
        k(   54) = (   1.5243485   0.0000000  -0.2970830), wk =   0.0156250
        k(   55) = (  -0.2540581  -0.4513715   0.0000000), wk =   0.0312500
        k(   56) = (  -0.2540581  -0.4513715   0.1485415), wk =   0.0625000
        k(   57) = (  -0.2540581  -0.4513715  -0.2970830), wk =   0.0312500
        k(   58) = (   0.0000000  -0.3868899   0.0000000), wk =   0.0156250
        k(   59) = (   0.0000000  -0.3868899   0.1485415), wk =   0.0312500
        k(   60) = (   0.0000000  -0.3868899  -0.2970830), wk =   0.0156250
        k(   61) = (  -2.0324647   0.0000000   0.0000000), wk =   0.0078125
        k(   62) = (  -2.0324647   0.0000000   0.1485415), wk =   0.0156250
        k(   63) = (  -2.0324647   0.0000000  -0.2970830), wk =   0.0078125

     Dense  grid:  1153415 G-vectors     FFT dimensions: ( 144, 144, 240)

     Smooth grid:   291749 G-vectors     FFT dimensions: (  90,  90, 150)

     Estimated max dynamical RAM per process >     657.19 MB

     Estimated total dynamical RAM >       6.42 GB

     Initial potential from superposition of free atoms

     starting charge   83.99353, renormalised to   84.00000
     Starting wfcs are   66 randomized atomic wfcs
     Checking if some PAW data can be deallocated... 

     total cpu time spent up to now is       21.7 secs

     Self-consistent Calculation

     iteration #  1     ecut=    80.00 Ry     beta= 0.70
     Davidson diagonalization with overlap
     ethr =  1.00E-02,  avg # of iterations =  2.2

     Threshold (ethr) on eigenvalues was too large:
     Diagonalizing with lowered threshold

     Davidson diagonalization with overlap
     ethr =  5.00E-04,  avg # of iterations =  3.9

     total cpu time spent up to now is      103.6 secs

     total energy              =   -4240.65713129 Ry
     estimated scf accuracy    <       0.46487156 Ry

     iteration #  2     ecut=    80.00 Ry     beta= 0.70
     Davidson diagonalization with overlap
     ethr =  5.53E-04,  avg # of iterations =  8.3

     total cpu time spent up to now is      165.1 secs

     total energy              =   -4240.54001190 Ry
     estimated scf accuracy    <       2.09657938 Ry

     iteration #  3     ecut=    80.00 Ry     beta= 0.70
     Davidson diagonalization with overlap
     ethr =  5.53E-04,  avg # of iterations =  5.2

     total cpu time spent up to now is      215.4 secs

     total energy              =   -4240.88370646 Ry
     estimated scf accuracy    <       0.00803405 Ry

     iteration #  4     ecut=    80.00 Ry     beta= 0.70
     Davidson diagonalization with overlap
     c_bands:  1 eigenvalues not converged
     c_bands:  1 eigenvalues not converged
     c_bands:  2 eigenvalues not converged
     c_bands:  4 eigenvalues not converged
     c_bands:  1 eigenvalues not converged
     c_bands:  3 eigenvalues not converged
     c_bands:  2 eigenvalues not converged
     c_bands:  3 eigenvalues not converged
     c_bands:  2 eigenvalues not converged
     c_bands:  2 eigenvalues not converged
     c_bands:  2 eigenvalues not converged
     c_bands:  1 eigenvalues not converged
     c_bands:  1 eigenvalues not converged
     c_bands:  1 eigenvalues not converged
     ethr =  9.56E-06,  avg # of iterations = 16.5

     total cpu time spent up to now is      310.6 secs

     total energy              =   -4240.89255926 Ry
     estimated scf accuracy    <       0.03191918 Ry

     iteration #  5     ecut=    80.00 Ry     beta= 0.70
     Davidson diagonalization with overlap
     ethr =  9.56E-06,  avg # of iterations =  6.5

     total cpu time spent up to now is      359.7 secs

     total energy              =   -4240.89427172 Ry
     estimated scf accuracy    <       0.00543542 Ry

     iteration #  6     ecut=    80.00 Ry     beta= 0.70
     Davidson diagonalization with overlap
     ethr =  6.47E-06,  avg # of iterations =  3.3

     total cpu time spent up to now is      400.6 secs

     total energy              =   -4240.89471656 Ry
     estimated scf accuracy    <       0.00098006 Ry

     iteration #  7     ecut=    80.00 Ry     beta= 0.70
     Davidson diagonalization with overlap
     ethr =  1.17E-06,  avg # of iterations =  8.0

     total cpu time spent up to now is      458.7 secs

     total energy              =   -4240.89513058 Ry
     estimated scf accuracy    <       0.00065696 Ry

     iteration #  8     ecut=    80.00 Ry     beta= 0.70
     Davidson diagonalization with overlap
     ethr =  7.82E-07,  avg # of iterations =  1.9

     total cpu time spent up to now is      495.5 secs

     total energy              =   -4240.89515133 Ry
     estimated scf accuracy    <       0.00010015 Ry

     iteration #  9     ecut=    80.00 Ry     beta= 0.70
     Davidson diagonalization with overlap
     ethr =  1.19E-07,  avg # of iterations =  6.0

     total cpu time spent up to now is      543.6 secs

     total energy              =   -4240.89518201 Ry
     estimated scf accuracy    <       0.00000702 Ry

     iteration # 10     ecut=    80.00 Ry     beta= 0.70
     Davidson diagonalization with overlap
     ethr =  8.36E-09,  avg # of iterations =  5.3

     total cpu time spent up to now is      591.4 secs

     total energy              =   -4240.89518461 Ry
     estimated scf accuracy    <       0.00000047 Ry

     iteration # 11     ecut=    80.00 Ry     beta= 0.70
     Davidson diagonalization with overlap
     ethr =  5.54E-10,  avg # of iterations =  6.5

     total cpu time spent up to now is      644.4 secs

     total energy              =   -4240.89518493 Ry
     estimated scf accuracy    <       0.00000004 Ry

     iteration # 12     ecut=    80.00 Ry     beta= 0.70
     Davidson diagonalization with overlap
     ethr =  4.24E-11,  avg # of iterations =  6.0

     total cpu time spent up to now is      694.5 secs

     total energy              =   -4240.89518495 Ry
     estimated scf accuracy    <          1.0E-09 Ry

     iteration # 13     ecut=    80.00 Ry     beta= 0.70
     Davidson diagonalization with overlap
     ethr =  1.23E-12,  avg # of iterations =  7.9

     total cpu time spent up to now is      757.3 secs

     total energy              =   -4240.89518495 Ry
     estimated scf accuracy    <          2.3E-09 Ry

     iteration # 14     ecut=    80.00 Ry     beta= 0.70
     Davidson diagonalization with overlap
     ethr =  1.23E-12,  avg # of iterations =  3.6

     total cpu time spent up to now is      798.8 secs

     total energy              =   -4240.89518495 Ry
     estimated scf accuracy    <          1.4E-10 Ry

     iteration # 15     ecut=    80.00 Ry     beta= 0.70
     Davidson diagonalization with overlap
     ethr =  1.71E-13,  avg # of iterations =  8.0

     total cpu time spent up to now is      856.7 secs

     total energy              =   -4240.89518495 Ry
     estimated scf accuracy    <          1.2E-10 Ry

     iteration # 16     ecut=    80.00 Ry     beta= 0.70
     Davidson diagonalization with overlap
     ethr =  1.46E-13,  avg # of iterations =  1.6

     total cpu time spent up to now is      892.0 secs

     End of self-consistent calculation

          k = 0.0000 0.0000 0.0000 ( 36359 PWs)   bands (ev):

   -44.1677 -44.1676 -22.2726 -22.2726 -22.1849 -22.1849 -22.1090 -22.1088
    -8.6206  -8.4941  -7.1413  -7.0192  -5.9369  -5.3774  -4.7495  -4.7009
    -4.5068  -3.6956   0.1181   0.8707   0.8733   1.1259   1.1875   1.3505
     1.4016   1.5156   2.2630   2.8516   2.9203   2.9217   3.1179   3.4662
     3.9705   4.0407   4.1498   4.1689   4.3356   4.4437   4.5894   4.6222
     4.7949   5.0130   5.6035   5.7655   5.8209   5.9880   6.2524   6.5379
     7.2257   7.2430

          k = 0.0000 0.0000 0.1485 ( 36415 PWs)   bands (ev):

   -44.1677 -44.1677 -22.2726 -22.2726 -22.1849 -22.1849 -22.1090 -22.1088
    -8.6039  -8.5147  -7.1198  -7.0339  -5.8820  -5.5078  -4.7384  -4.7069
    -4.3490  -3.7947   0.1989   0.7889   0.9244   0.9962   1.1479   1.3576
     1.3937   1.8209   1.9785   2.8628   2.9123   2.9188   3.3199   3.5405
     3.8796   4.0809   4.1306   4.1678   4.3455   4.4106   4.5419   4.6776
     4.7183   4.7811   5.7651   5.8164   5.8170   6.2057   6.3684   6.4304
     7.0135   7.0457

          k = 0.0000 0.0000-0.2971 ( 36410 PWs)   bands (ev):

   -44.1677 -44.1677 -22.2726 -22.2726 -22.1849 -22.1849 -22.1089 -22.1089
    -8.5612  -8.5612  -7.0734  -7.0734  -5.7251  -5.7251  -4.7217  -4.7217
    -4.0486  -4.0486   0.4333   0.4333   1.0152   1.0152   1.3753   1.3753
     1.3822   1.3822   2.4646   2.4646   2.8885   2.8885   3.6828   3.6828
     3.9054   3.9054   4.1934   4.1934   4.2544   4.2544   4.5362   4.5362
     4.7412   4.7412   5.7984   5.7984   6.1387   6.1387   6.6328   6.6328
     6.6609   6.6609

          k = 0.2541 0.0645 0.0000 ( 36396 PWs)   bands (ev):

   -44.1673 -44.1673 -22.2707 -22.2707 -22.1943 -22.1943 -22.1080 -22.1078
    -8.4882  -8.3629  -7.0799  -6.9688  -5.8819  -5.3288  -4.7051  -4.6551
    -4.5954  -3.9152   0.1798   0.4976   0.9701   0.9815   1.0096   1.2957
     1.3289   1.5672   1.7499   2.6159   2.6542   3.1085   3.3881   3.6809
     3.7582   3.8252   3.9291   3.9785   4.1195   4.3196   4.3321   4.4623
     4.5513   4.6764   5.9878   6.0283   6.1022   6.1710   6.3334   6.8252
     7.0837   7.2721

          k = 0.2541 0.0645 0.1485 ( 36423 PWs)   bands (ev):

   -44.1673 -44.1673 -22.2707 -22.2707 -22.1943 -22.1943 -22.1079 -22.1078
    -8.4717  -8.3833  -7.0603  -6.9822  -5.8273  -5.4583  -4.6967  -4.6614
    -4.4510  -3.9910   0.2463   0.4820   0.7807   0.9717   1.0358   1.2012
     1.3574   1.7176   1.9786   2.6193   2.6393   2.9003   3.4501   3.4950
     3.5249   3.9040   3.9974   4.0836   4.0977   4.2753   4.4702   4.5491
     4.5951   4.7611   5.9030   5.9404   6.1020   6.1599   6.2046   6.8846
     7.2015   7.2276

          k = 0.2541 0.0645-0.2971 ( 36436 PWs)   bands (ev):

   -44.1673 -44.1673 -22.2707 -22.2707 -22.1943 -22.1943 -22.1079 -22.1079
    -8.4294  -8.4294  -7.0182  -7.0182  -5.6721  -5.6721  -4.6790  -4.6790
    -4.1940  -4.1940   0.3996   0.3996   0.7393   0.7393   1.1322   1.1322
     1.5951   1.5951   2.4593   2.4593   2.6464   2.6464   3.3301   3.3301
     3.7272   3.7272   4.0572   4.0572   4.2192   4.2192   4.5163   4.5163
     4.8509   4.8509   5.7496   5.7496   6.1051   6.1051   6.5261   6.5261
     7.3269   7.3270

          k = 0.5081 0.1290 0.0000 ( 36499 PWs)   bands (ev):

   -44.1664 -44.1664 -22.2660 -22.2660 -22.2169 -22.2169 -22.1055 -22.1053
    -8.0976  -7.9749  -6.9325  -6.8458  -5.7368  -5.2044  -4.9631  -4.5848
    -4.5403  -4.5376  -0.3104   0.1936   0.7182   0.7734   1.1714   1.3295
     1.6124   1.6407   1.7298   2.0654   2.1338   2.5137   2.6720   3.3982
     3.4613   3.5444   3.6161   3.7538   3.7893   3.8601   4.0527   4.2878
     4.2939   4.7454   6.0719   6.2560   6.3621   6.6153   6.6869   7.1430
     7.3708   7.5291

          k = 0.5081 0.1290 0.1485 ( 36476 PWs)   bands (ev):

   -44.1664 -44.1664 -22.2660 -22.2660 -22.2169 -22.2169 -22.1054 -22.1053
    -8.0815  -7.9950  -6.9173  -6.8564  -5.6857  -5.3458  -4.8471  -4.6051
    -4.5670  -4.5156  -0.2482   0.1217   0.7111   0.8338   1.1395   1.1900
     1.4121   1.6003   1.9979   2.0867   2.2491   2.5691   2.9252   3.2831
     3.4521   3.5044   3.5676   3.7386   3.8087   3.8220   3.9407   4.2845
     4.3313   4.4554   6.3209   6.3953   6.4795   6.6145   6.7742   7.0260
     7.2389   7.5226

          k = 0.5081 0.1290-0.2971 ( 36466 PWs)   bands (ev):

   -44.1664 -44.1664 -22.2660 -22.2660 -22.2169 -22.2169 -22.1054 -22.1054
    -8.0402  -8.0402  -6.8845  -6.8845  -5.5434  -5.5434  -4.7065  -4.7065
    -4.5330  -4.5330  -0.0763  -0.0763   0.8677   0.8677   0.9933   0.9933
     1.4925   1.4925   2.0578   2.0578   2.6099   2.6099   3.1854   3.1854
     3.3783   3.3783   3.6097   3.6097   3.7949   3.7949   3.9963   3.9963
     4.3762   4.3762   6.5406   6.5406   6.5767   6.5767   6.8999   6.8999
     7.3447   7.3447

          k = 0.7622 0.1934 0.0000 ( 36521 PWs)   bands (ev):

   -44.1656 -44.1656 -22.2613 -22.2613 -22.2394 -22.2394 -22.1029 -22.1029
    -7.4756  -7.3517  -6.7925  -6.7150  -5.7879  -5.6737  -5.1571  -5.0860
    -4.4547  -4.4151  -0.4153  -0.0475   0.0377   0.8559   0.8810   1.3238
     1.4950   1.5904   2.0238   2.0608   2.2228   2.3518   2.4929   2.8271
     3.0575   3.1649   3.3397   3.4132   3.5487   3.6453   3.7062   3.7775
     3.9467   4.6098   6.4115   6.5464   6.7008   7.0046   7.0188   7.0704
     7.4154   7.6026

          k = 0.7622 0.1934 0.1485 ( 36503 PWs)   bands (ev):

   -44.1656 -44.1656 -22.2613 -22.2613 -22.2394 -22.2394 -22.1029 -22.1029
    -7.4597  -7.3727  -6.7790  -6.7247  -5.7683  -5.6872  -5.1507  -5.1010
    -4.4479  -4.4201  -0.3770  -0.1184   0.1441   0.7232   0.9201   1.2596
     1.5019   1.5824   1.9626   2.0110   2.2310   2.5298   2.7280   2.9166
     2.9663   3.0250   3.2657   3.3120   3.5024   3.5866   3.8242   3.9299
     4.0169   4.4723   6.2547   6.5150   6.8205   6.9775   7.0692   7.1793
     7.2657   7.6693

          k = 0.7622 0.1934-0.2971 ( 36522 PWs)   bands (ev):

   -44.1656 -44.1656 -22.2613 -22.2613 -22.2394 -22.2394 -22.1029 -22.1029
    -7.4187  -7.4187  -6.7499  -6.7499  -5.7246  -5.7246  -5.1301  -5.1301
    -4.4332  -4.4332  -0.2634  -0.2634   0.4168   0.4168   1.0677   1.0677
     1.5499   1.5499   1.9637   1.9637   2.4858   2.4858   2.8606   2.8606
     2.9349   2.9349   3.2415   3.2415   3.5829   3.5829   3.9705   3.9705
     4.1338   4.1338   6.5473   6.5473   6.6037   6.6037   7.1079   7.1079
     7.6336   7.6336

          k =-1.0162-0.2579 0.0000 ( 36506 PWs)   bands (ev):

   -44.1652 -44.1652 -22.2593 -22.2593 -22.2487 -22.2487 -22.1019 -22.1019
    -6.8293  -6.8073  -6.5463  -6.5435  -6.5108  -6.4983  -5.1017  -5.1012
    -4.3954  -4.3631  -0.2352  -0.2190   0.0678   0.0884   1.0158   1.0216
     1.4667   1.6504   2.1806   2.3292   2.3669   2.3934   2.7608   2.8596
     2.8944   2.9535   3.1648   3.1917   3.2654   3.3234   3.4257   3.5710
     4.0939   4.3262   6.7572   6.8177   6.9929   6.9997   7.1580   7.2637
     7.2644   7.3358

          k =-1.0162-0.2579 0.1485 ( 36506 PWs)   bands (ev):

   -44.1652 -44.1652 -22.2593 -22.2593 -22.2487 -22.2487 -22.1019 -22.1019
    -6.8210  -6.8045  -6.5819  -6.5755  -6.4789  -6.4734  -5.1005  -5.1002
    -4.3924  -4.3695  -0.3189  -0.3138   0.2278   0.2364   1.0132   1.0188
     1.4563   1.5835   2.1049   2.2616   2.3063   2.3808   2.6034   2.6502
     2.9162   2.9875   3.1510   3.2412   3.4402   3.5156   3.5806   3.6507
     4.1893   4.3326   6.4745   6.4966   6.6532   6.7312   7.2772   7.2809
     7.5190   7.5848

          k =-1.0162-0.2579-0.2971 ( 36528 PWs)   bands (ev):

   -44.1652 -44.1652 -22.2593 -22.2593 -22.2487 -22.2487 -22.1019 -22.1019
    -6.8066  -6.8066  -6.6007  -6.6007  -6.4599  -6.4599  -5.0993  -5.0993
    -4.3826  -4.3826  -0.3732  -0.3732   0.3690   0.3690   0.9964   0.9964
     1.4929   1.4929   2.0403   2.0403   2.3207   2.3207   2.7260   2.7260
     2.7728   2.7728   3.2368   3.2368   3.5969   3.5969   3.7376   3.7376
     4.3438   4.3438   6.1760   6.1760   6.5883   6.5883   7.2874   7.2874
     7.6665   7.6665

          k = 0.5081 0.0000 0.0000 ( 36503 PWs)   bands (ev):

   -44.1664 -44.1664 -22.2660 -22.2660 -22.2169 -22.2169 -22.1055 -22.1053
    -8.0987  -7.9752  -6.9325  -6.8461  -5.7341  -5.2033  -4.9612  -4.5772
    -4.5463  -4.5398  -0.3066   0.1870   0.7338   0.7693   1.1683   1.2936
     1.6002   1.6366   1.7120   2.0719   2.1302   2.5039   2.6778   3.4105
     3.4518   3.5808   3.6287   3.7672   3.7728   3.9034   4.0294   4.2923
     4.3292   4.7308   6.0785   6.2310   6.3887   6.5798   6.6346   7.1845
     7.3728   7.5623

          k = 0.5081 0.0000 0.1485 ( 36453 PWs)   bands (ev):

   -44.1664 -44.1664 -22.2660 -22.2660 -22.2169 -22.2169 -22.1054 -22.1053
    -8.0824  -7.9955  -6.9172  -6.8565  -5.6834  -5.3447  -4.8446  -4.6049
    -4.5636  -4.5203  -0.2452   0.1176   0.7171   0.8346   1.1438   1.1793
     1.3741   1.5791   1.9980   2.1063   2.2268   2.5606   2.9298   3.2946
     3.4764   3.4958   3.5814   3.7561   3.8097   3.8787   3.8892   4.3041
     4.3656   4.4297   6.3058   6.3996   6.4974   6.5750   6.7384   7.0619
     7.2463   7.5463

          k = 0.5081 0.0000-0.2971 ( 36452 PWs)   bands (ev):

   -44.1664 -44.1664 -22.2660 -22.2660 -22.2169 -22.2169 -22.1054 -22.1054
    -8.0409  -8.0409  -6.8844  -6.8844  -5.5417  -5.5417  -4.7041  -4.7041
    -4.5347  -4.5347  -0.0758  -0.0758   0.8646   0.8646   0.9972   0.9972
     1.4607   1.4607   2.0634   2.0634   2.5975   2.5975   3.1977   3.1977
     3.3894   3.3894   3.6084   3.6084   3.8276   3.8276   3.9747   3.9747
     4.3925   4.3925   6.5354   6.5354   6.5595   6.5595   6.9162   6.9162
     7.3515   7.3515

          k = 0.7622 0.0645 0.0000 ( 36505 PWs)   bands (ev):

   -44.1656 -44.1656 -22.2613 -22.2613 -22.2394 -22.2394 -22.1029 -22.1029
    -7.4782  -7.3522  -6.7896  -6.7146  -5.7887  -5.6723  -5.1558  -5.0862
    -4.4426  -4.4278  -0.4078  -0.0397   0.0356   0.8477   0.9084   1.3363
     1.4724   1.5478   1.9894   2.0464   2.2565   2.3738   2.4446   2.8026
     3.0504   3.1983   3.3434   3.4262   3.6112   3.6601   3.7171   3.7698
     3.8652   4.6234   6.4103   6.5142   6.7343   6.9938   7.0283   7.0563
     7.4153   7.6598

          k = 0.7622 0.0645 0.1485 ( 36509 PWs)   bands (ev):

   -44.1656 -44.1656 -22.2613 -22.2613 -22.2394 -22.2394 -22.1029 -22.1029
    -7.4621  -7.3736  -6.7762  -6.7237  -5.7689  -5.6863  -5.1496  -5.1009
    -4.4394  -4.4290  -0.3695  -0.1113   0.1415   0.7148   0.9446   1.2702
     1.4784   1.5767   1.9303   1.9629   2.2437   2.5226   2.7323   2.9040
     2.9778   3.0158   3.2888   3.3199   3.5426   3.5752   3.8209   3.9636
     3.9688   4.4615   6.2798   6.4896   6.8416   6.9749   7.0480   7.2008
     7.2503   7.7119

          k = 0.7622 0.0645-0.2971 ( 36472 PWs)   bands (ev):

   -44.1656 -44.1656 -22.2613 -22.2613 -22.2394 -22.2394 -22.1029 -22.1029
    -7.4204  -7.4204  -6.7478  -6.7478  -5.7246  -5.7246  -5.1295  -5.1295
    -4.4332  -4.4332  -0.2562  -0.2562   0.4115   0.4115   1.0838   1.0838
     1.5466   1.5466   1.9121   1.9121   2.4981   2.4981   2.8630   2.8630
     2.9091   2.9091   3.2827   3.2827   3.5796   3.5796   4.0066   4.0066
     4.0848   4.0848   6.5758   6.5758   6.6018   6.6018   7.0804   7.0804
     7.6633   7.6633

          k = 1.0162 0.1290 0.0000 ( 36514 PWs)   bands (ev):

   -44.1652 -44.1652 -22.2593 -22.2593 -22.2487 -22.2487 -22.1019 -22.1019
    -6.8293  -6.8073  -6.5463  -6.5434  -6.5107  -6.4984  -5.1017  -5.1012
    -4.3954  -4.3631  -0.2407  -0.2134   0.0661   0.0902   1.0061   1.0320
     1.4745   1.6391   2.1760   2.3374   2.3765   2.3831   2.7436   2.8933
     2.9012   2.9439   3.1485   3.1866   3.2776   3.3078   3.4363   3.5735
     4.0745   4.3458   6.7494   6.8309   6.9671   7.0249   7.1845   7.2637
     7.2660   7.3100

          k = 1.0162 0.1290 0.1485 ( 36524 PWs)   bands (ev):

   -44.1652 -44.1652 -22.2593 -22.2593 -22.2487 -22.2487 -22.1019 -22.1019
    -6.8210  -6.8044  -6.5818  -6.5755  -6.4788  -6.4734  -5.1005  -5.1002
    -4.3924  -4.3695  -0.3215  -0.3114   0.2288   0.2358   1.0086   1.0234
     1.4636   1.5759   2.1075   2.2491   2.3099   2.3833   2.6072   2.6552
     2.8993   3.0027   3.1528   3.2364   3.4484   3.4889   3.6025   3.6496
     4.1694   4.3523   6.4724   6.5067   6.6491   6.7323   7.2783   7.2811
     7.5243   7.5778

          k = 1.0162 0.1290-0.2971 ( 36516 PWs)   bands (ev):

   -44.1652 -44.1652 -22.2593 -22.2593 -22.2487 -22.2487 -22.1019 -22.1019
    -6.8066  -6.8066  -6.6007  -6.6007  -6.4599  -6.4599  -5.0993  -5.0993
    -4.3826  -4.3826  -0.3733  -0.3733   0.3693   0.3693   0.9962   0.9962
     1.4942   1.4942   2.0398   2.0398   2.3188   2.3188   2.7090   2.7090
     2.7936   2.7936   3.2324   3.2324   3.5987   3.5987   3.7373   3.7373
     4.3448   4.3448   6.1796   6.1796   6.5872   6.5872   7.2879   7.2879
     7.6644   7.6644

          k =-0.7622-0.3224 0.0000 ( 36511 PWs)   bands (ev):

   -44.1656 -44.1656 -22.2613 -22.2613 -22.2394 -22.2394 -22.1029 -22.1029
    -7.4719  -7.3509  -6.7970  -6.7154  -5.7869  -5.6757  -5.1589  -5.0857
    -4.4640  -4.4051  -0.4257  -0.0573   0.0393   0.8492   0.8674   1.3085
     1.5014   1.6674   2.0834   2.0859   2.2125   2.3198   2.4875   2.8660
     3.0629   3.1569   3.3343   3.3942   3.5159   3.6068   3.6934   3.7157
     4.0878   4.5843   6.4131   6.5919   6.6690   6.9285   7.0552   7.1439
     7.4057   7.5256

          k =-0.7622-0.3224 0.1485 ( 36492 PWs)   bands (ev):

   -44.1656 -44.1656 -22.2613 -22.2613 -22.2394 -22.2394 -22.1029 -22.1029
    -7.4563  -7.3713  -6.7831  -6.7259  -5.7674  -5.6885  -5.1522  -5.1011
    -4.4545  -4.4131  -0.3874  -0.1281   0.1473   0.7347   0.8915   1.2442
     1.5227   1.6003   2.0115   2.0785   2.2239   2.5274   2.6960   2.9407
     2.9702   3.0439   3.2455   3.2881   3.4726   3.5726   3.8075   3.8808
     4.1071   4.4858   6.2225   6.5539   6.7846   6.9763   7.0861   7.1872
     7.2866   7.5904

          k =-0.7622-0.3224-0.2971 ( 36508 PWs)   bands (ev):

   -44.1656 -44.1656 -22.2613 -22.2613 -22.2394 -22.2394 -22.1029 -22.1029
    -7.4162  -7.4162  -6.7529  -6.7529  -5.7246  -5.7246  -5.1309  -5.1309
    -4.4331  -4.4331  -0.2735  -0.2735   0.4238   0.4238   1.0483   1.0483
     1.5565   1.5565   2.0300   2.0300   2.4763   2.4763   2.8591   2.8591
     2.9683   2.9683   3.1871   3.1871   3.5804   3.5804   3.9230   3.9230
     4.1999   4.1999   6.5146   6.5146   6.6017   6.6017   7.1509   7.1509
     7.5641   7.5642

          k =-0.5081-0.2579 0.0000 ( 36480 PWs)   bands (ev):

   -44.1664 -44.1664 -22.2660 -22.2660 -22.2169 -22.2169 -22.1055 -22.1053
    -8.0951  -7.9743  -6.9330  -6.8447  -5.7434  -5.2068  -4.9678  -4.5957
    -4.5415  -4.5241  -0.3195   0.2096   0.6939   0.7705   1.1791   1.4246
     1.6422   1.6490   1.7803   2.0519   2.1327   2.5338   2.6565   3.3444
     3.4891   3.4897   3.6036   3.6944   3.7757   3.8053   4.1186   4.2086
     4.2759   4.7765   6.0586   6.2804   6.3353   6.7053   6.8148   7.0486
     7.3632   7.4576

          k =-0.5081-0.2579 0.1485 ( 36485 PWs)   bands (ev):

   -44.1664 -44.1664 -22.2660 -22.2660 -22.2169 -22.2169 -22.1054 -22.1053
    -8.0792  -7.9941  -6.9178  -6.8558  -5.6915  -5.3486  -4.8531  -4.6060
    -4.5729  -4.5065  -0.2553   0.1313   0.6993   0.8286   1.1341   1.2147
     1.5092   1.6597   1.9847   2.0573   2.2903   2.5860   2.9125   3.2415
     3.4046   3.5217   3.5426   3.6896   3.7499   3.7872   4.0293   4.2204
     4.2876   4.4938   6.3530   6.3641   6.4610   6.7045   6.8654   6.9544
     7.2141   7.4730

          k =-0.5081-0.2579-0.2971 ( 36478 PWs)   bands (ev):

   -44.1664 -44.1664 -22.2660 -22.2660 -22.2169 -22.2169 -22.1054 -22.1054
    -8.0385  -8.0385  -6.8848  -6.8848  -5.5474  -5.5474  -4.7124  -4.7124
    -4.5291  -4.5291  -0.0776  -0.0776   0.8755   0.8755   0.9841   0.9841
     1.5778   1.5778   2.0378   2.0378   2.6470   2.6470   3.1367   3.1367
     3.3582   3.3582   3.6095   3.6095   3.7293   3.7293   4.0413   4.0413
     4.3404   4.3404   6.5116   6.5116   6.6537   6.6537   6.8637   6.8637
     7.3346   7.3346

          k =-0.2541-0.1934 0.0000 ( 36410 PWs)   bands (ev):

   -44.1673 -44.1673 -22.2707 -22.2707 -22.1943 -22.1943 -22.1080 -22.1078
    -8.4865  -8.3624  -7.0773  -6.9670  -5.8926  -5.3341  -4.7221  -4.6452
    -4.5909  -3.9157   0.2013   0.4917   0.9724   0.9743   1.0822   1.3204
     1.3588   1.6218   1.7598   2.5870   2.6435   3.1163   3.4349   3.6590
     3.7433   3.7657   3.9185   3.9229   3.9753   4.2333   4.2731   4.4310
     4.4975   4.7159   6.0386   6.0871   6.1475   6.2109   6.3644   6.8742
     7.0422   7.2089

          k =-0.2541-0.1934 0.1485 ( 36427 PWs)   bands (ev):

   -44.1673 -44.1673 -22.2707 -22.2707 -22.1943 -22.1943 -22.1079 -22.1078
    -8.4701  -8.3826  -7.0581  -6.9805  -5.8370  -5.4640  -4.7102  -4.6528
    -4.4495  -3.9911   0.2681   0.4797   0.7791   1.0007   1.0919   1.2254
     1.3822   1.7280   2.0163   2.5872   2.6337   2.9111   3.4548   3.4892
     3.5743   3.8404   3.8985   3.9183   4.0655   4.2368   4.4353   4.4841
     4.5703   4.7988   5.9197   5.9291   6.1513   6.2342   6.2745   6.8729
     7.1841   7.2063

          k =-0.2541-0.1934-0.2971 ( 36422 PWs)   bands (ev):

   -44.1673 -44.1673 -22.2707 -22.2707 -22.1943 -22.1943 -22.1079 -22.1079
    -8.4282  -8.4282  -7.0164  -7.0164  -5.6796  -5.6796  -4.6814  -4.6814
    -4.1934  -4.1934   0.4134   0.4134   0.7493   0.7493   1.1794   1.1794
     1.6072   1.6072   2.4692   2.4692   2.6444   2.6444   3.3278   3.3278
     3.7624   3.7624   3.8730   3.8730   4.1953   4.1953   4.4619   4.4619
     4.8670   4.8670   5.7387   5.7387   6.1787   6.1787   6.5336   6.5336
     7.3149   7.3149

          k = 0.0000-0.1290 0.0000 ( 36417 PWs)   bands (ev):

   -44.1677 -44.1677 -22.2726 -22.2726 -22.1849 -22.1849 -22.1090 -22.1088
    -8.6197  -8.4939  -7.1392  -7.0179  -5.9438  -5.3811  -4.7584  -4.6936
    -4.5068  -3.6957   0.1309   0.8720   0.9140   1.1380   1.1994   1.3503
     1.4014   1.5507   2.2588   2.8585   2.9191   2.9261   3.1191   3.5049
     3.9759   4.0157   4.0290   4.0305   4.2843   4.4441   4.5456   4.6080
     4.7932   5.0006   5.6199   5.8115   5.8758   6.0149   6.2607   6.5555
     7.1954   7.2259

          k = 0.0000-0.1290 0.1485 ( 36419 PWs)   bands (ev):

   -44.1677 -44.1677 -22.2726 -22.2726 -22.1849 -22.1849 -22.1090 -22.1088
    -8.6030  -8.5144  -7.1180  -7.0327  -5.8884  -5.5118  -4.7462  -4.7012
    -4.3490  -3.7948   0.2128   0.8099   0.9523   1.0007   1.1701   1.3574
     1.3935   1.8287   1.9929   2.8694   2.9171   2.9244   3.3073   3.5816
     3.8929   3.9965   4.0309   4.0697   4.3395   4.3536   4.5123   4.6703
     4.7045   4.7792   5.7973   5.8428   5.8689   6.2122   6.3754   6.4490
     7.0034   7.0150

          k = 0.0000-0.1290-0.2971 ( 36464 PWs)   bands (ev):

   -44.1677 -44.1677 -22.2726 -22.2726 -22.1849 -22.1849 -22.1089 -22.1089
    -8.5606  -8.5606  -7.0721  -7.0721  -5.7302  -5.7302  -4.7228  -4.7228
    -4.0485  -4.0485   0.4496   0.4496   1.0420   1.0420   1.3750   1.3750
     1.3855   1.3855   2.4784   2.4784   2.8942   2.8942   3.6951   3.6951
     3.8656   3.8656   4.1517   4.1517   4.1836   4.1836   4.5046   4.5046
     4.7380   4.7380   5.8413   5.8413   6.1547   6.1547   6.6145   6.6145
     6.6651   6.6651

          k = 1.0162 0.0000 0.0000 ( 36499 PWs)   bands (ev):

   -44.1652 -44.1652 -22.2593 -22.2593 -22.2487 -22.2487 -22.1019 -22.1019
    -6.8293  -6.8073  -6.5463  -6.5434  -6.5107  -6.4985  -5.1017  -5.1012
    -4.3954  -4.3631  -0.2445  -0.2095   0.0646   0.0917   1.0013   1.0374
     1.4837   1.6265   2.1720   2.3550   2.3634   2.3858   2.7319   2.9176
     2.9245   2.9247   3.1125   3.2190   3.2788   3.2814   3.4471   3.5761
     4.0578   4.3629   6.7434   6.8424   6.9551   7.0363   7.2444   7.2510
     7.2638   7.2673

          k = 1.0162 0.0000 0.1485 ( 36485 PWs)   bands (ev):

   -44.1652 -44.1652 -22.2593 -22.2593 -22.2487 -22.2487 -22.1019 -22.1019
    -6.8210  -6.8044  -6.5818  -6.5755  -6.4788  -6.4735  -5.1005  -5.1002
    -4.3924  -4.3695  -0.3232  -0.3099   0.2301   0.2349   1.0060   1.0260
     1.4721   1.5670   2.1102   2.2367   2.3156   2.3829   2.6146   2.6562
     2.8875   3.0137   3.1553   3.2305   3.4574   3.4706   3.6114   3.6524
     4.1531   4.3685   6.4719   6.5153   6.6452   6.7332   7.2793   7.2814
     7.5317   7.5686

          k = 1.0162 0.0000-0.2971 ( 36514 PWs)   bands (ev):

   -44.1652 -44.1652 -22.2593 -22.2593 -22.2487 -22.2487 -22.1019 -22.1019
    -6.8066  -6.8066  -6.6007  -6.6007  -6.4599  -6.4599  -5.0993  -5.0993
    -4.3826  -4.3826  -0.3734  -0.3734   0.3695   0.3695   0.9959   0.9959
     1.4954   1.4954   2.0392   2.0392   2.3169   2.3169   2.6978   2.6978
     2.8087   2.8087   3.2278   3.2278   3.6005   3.6005   3.7371   3.7371
     4.3457   4.3457   6.1831   6.1831   6.5860   6.5860   7.2884   7.2884
     7.6620   7.6620

          k = 1.2703 0.0645 0.0000 ( 36468 PWs)   bands (ev):

   -44.1656 -44.1656 -22.2613 -22.2613 -22.2394 -22.2394 -22.1029 -22.1029
    -7.4692  -7.3503  -6.8003  -6.7156  -5.7862  -5.6771  -5.1601  -5.0855
    -4.4689  -4.3996  -0.4330  -0.0637   0.0399   0.8302   0.8755   1.2991
     1.5001   1.7244   2.1020   2.1248   2.2694   2.2956   2.4050   2.8983
     3.0616   3.1748   3.3493   3.3763   3.5131   3.5606   3.6595   3.6839
     4.1914   4.5564   6.4142   6.6219   6.6592   6.8732   7.0818   7.2176
     7.3808   7.4951

          k = 1.2703 0.0645 0.1485 ( 36490 PWs)   bands (ev):

   -44.1656 -44.1656 -22.2613 -22.2613 -22.2394 -22.2394 -22.1029 -22.1029
    -7.4539  -7.3703  -6.7861  -6.7267  -5.7668  -5.6894  -5.1532  -5.1012
    -4.4580  -4.4093  -0.3947  -0.1348   0.1492   0.7427   0.8741   1.2341
     1.5292   1.6192   2.0543   2.1095   2.2425   2.5164   2.6538   2.9640
     2.9767   3.0705   3.2326   3.2636   3.4758   3.5376   3.7898   3.8464
     4.1787   4.4925   6.2021   6.5847   6.7547   6.9727   7.0807   7.2386
     7.2926   7.5301

          k = 1.2703 0.0645-0.2971 ( 36480 PWs)   bands (ev):

   -44.1656 -44.1656 -22.2613 -22.2613 -22.2394 -22.2394 -22.1029 -22.1029
    -7.4144  -7.4144  -6.7550  -6.7550  -5.7245  -5.7245  -5.1315  -5.1315
    -4.4330  -4.4330  -0.2805  -0.2805   0.4284   0.4284   1.0366   1.0366
     1.5622   1.5622   2.0713   2.0713   2.4771   2.4771   2.8617   2.8617
     2.9827   2.9827   3.1561   3.1561   3.5729   3.5729   3.8899   3.8899
     4.2469   4.2469   6.4943   6.4943   6.5992   6.5992   7.1852   7.1852
     7.4955   7.4957

          k =-0.5081-0.3869 0.0000 ( 36463 PWs)   bands (ev):

   -44.1664 -44.1664 -22.2660 -22.2660 -22.2169 -22.2169 -22.1054 -22.1053
    -8.0925  -7.9737  -6.9338  -6.8432  -5.7501  -5.2092  -4.9726  -4.6029
    -4.5428  -4.5143  -0.3283   0.2253   0.6774   0.7603   1.1871   1.5450
     1.6595   1.6726   1.8179   2.0283   2.1493   2.5306   2.6385   3.2716
     3.4739   3.5266   3.5921   3.6030   3.7216   3.8090   4.1136   4.1961
     4.2629   4.8037   6.0478   6.2140   6.4018   6.8031   6.9563   6.9600
     7.3409   7.4122

          k =-0.5081-0.3869 0.1485 ( 36477 PWs)   bands (ev):

   -44.1664 -44.1664 -22.2660 -22.2660 -22.2169 -22.2169 -22.1054 -22.1053
    -8.0768  -7.9931  -6.9186  -6.8549  -5.6974  -5.3513  -4.8591  -4.6072
    -4.5768  -4.4992  -0.2623   0.1406   0.6902   0.8199   1.1328   1.2379
     1.6319   1.7316   1.9453   2.0253   2.3496   2.5778   2.8942   3.1921
     3.3550   3.5258   3.5463   3.6111   3.7397   3.7505   4.1001   4.1572
     4.2550   4.5268   6.2990   6.4002   6.4580   6.7950   6.8509   7.0173
     7.1737   7.4447

          k =-0.5081-0.3869-0.2971 ( 36492 PWs)   bands (ev):

   -44.1664 -44.1664 -22.2660 -22.2660 -22.2169 -22.2169 -22.1054 -22.1054
    -8.0367  -8.0367  -6.8850  -6.8850  -5.5514  -5.5514  -4.7181  -4.7181
    -4.5254  -4.5254  -0.0788  -0.0788   0.8834   0.8834   0.9751   0.9751
     1.6855   1.6855   1.9986   1.9986   2.7029   2.7029   3.0494   3.0494
     3.3488   3.3488   3.6012   3.6012   3.6852   3.6852   4.0721   4.0721
     4.3161   4.3161   6.4824   6.4824   6.7056   6.7056   6.8446   6.8446
     7.3451   7.3451

          k =-0.2541-0.3224 0.0000 ( 36485 PWs)   bands (ev):

   -44.1673 -44.1673 -22.2707 -22.2707 -22.1943 -22.1943 -22.1080 -22.1078
    -8.4840  -8.3618  -7.0741  -6.9637  -5.9079  -5.3414  -4.7413  -4.6324
    -4.5883  -3.9165   0.2267   0.4838   0.9686   0.9814   1.1980   1.3541
     1.4090   1.7117   1.7757   2.5253   2.5997   3.1550   3.5079   3.5876
     3.6230   3.6598   3.7989   3.9083   3.9800   4.1546   4.1809   4.3746
     4.4187   4.7761   6.0843   6.1399   6.1813   6.3164   6.4077   6.9409
     6.9654   7.1298

          k =-0.2541-0.3224 0.1485 ( 36445 PWs)   bands (ev):

   -44.1673 -44.1673 -22.2707 -22.2707 -22.1943 -22.1943 -22.1079 -22.1078
    -8.4678  -8.3817  -7.0552  -6.9776  -5.8508  -5.4720  -4.7248  -4.6450
    -4.4476  -3.9913   0.2944   0.4764   0.7767   1.0325   1.1807   1.2793
     1.4278   1.7513   2.0778   2.5276   2.5921   2.9467   3.4402   3.4686
     3.6360   3.6474   3.6968   3.9186   4.0230   4.1734   4.3776   4.4114
     4.5477   4.8468   5.9174   5.9363   6.2012   6.3058   6.3791   6.8227
     7.1781   7.1909

          k =-0.2541-0.3224-0.2971 ( 36442 PWs)   bands (ev):

   -44.1673 -44.1673 -22.2707 -22.2707 -22.1943 -22.1943 -22.1079 -22.1079
    -8.4265  -8.4265  -7.0139  -7.0139  -5.6901  -5.6901  -4.6849  -4.6849
    -4.1924  -4.1924   0.4295   0.4295   0.7613   0.7613   1.2611   1.2611
     1.6324   1.6324   2.4801   2.4801   2.6325   2.6325   3.3159   3.3159
     3.6349   3.6349   3.8328   3.8328   4.1393   4.1393   4.3972   4.3972
     4.8869   4.8869   5.7299   5.7299   6.2355   6.2355   6.5513   6.5513
     7.3054   7.3054

          k = 0.0000-0.2579 0.0000 ( 36445 PWs)   bands (ev):

   -44.1677 -44.1677 -22.2726 -22.2726 -22.1849 -22.1849 -22.1090 -22.1088
    -8.6174  -8.4933  -7.1346  -7.0146  -5.9607  -5.3899  -4.7754  -4.6800
    -4.5076  -3.6961   0.1572   0.8776   1.0212   1.1646   1.2551   1.3496
     1.4008   1.6240   2.2492   2.8759   2.9222   2.9366   3.1263   3.6107
     3.6786   3.7264   4.0004   4.0163   4.1622   4.4254   4.4452   4.5737
     4.7892   4.9788   5.6598   5.8967   5.9646   6.0856   6.2812   6.5940
     7.0655   7.2262

          k = 0.0000-0.2579 0.1485 ( 36452 PWs)   bands (ev):

   -44.1677 -44.1677 -22.2726 -22.2726 -22.1849 -22.1849 -22.1090 -22.1088
    -8.6010  -8.5135  -7.1138  -7.0294  -5.9039  -5.5212  -4.7601  -4.6921
    -4.3490  -3.7949   0.2415   0.8477   1.0007   1.0618   1.2310   1.3567
     1.3929   1.8440   2.0323   2.8858   2.9287   2.9423   3.2835   3.6391
     3.6976   3.7486   3.9348   4.0421   4.2352   4.3237   4.4102   4.6538
     4.6902   4.7747   5.8520   5.9065   5.9506   6.2296   6.3926   6.4890
     6.8907   7.0188

          k = 0.0000-0.2579-0.2971 ( 36454 PWs)   bands (ev):

   -44.1677 -44.1677 -22.2726 -22.2726 -22.1849 -22.1849 -22.1089 -22.1089
    -8.5591  -8.5591  -7.0687  -7.0687  -5.7423  -5.7423  -4.7256  -4.7256
    -4.0482  -4.0482   0.4841   0.4841   1.1201   1.1201   1.3744   1.3744
     1.3961   1.3961   2.5145   2.5145   2.9083   2.9083   3.6014   3.6014
     3.7859   3.7859   4.0427   4.0427   4.1596   4.1596   4.4242   4.4242
     4.7307   4.7307   5.9093   5.9093   6.1963   6.1963   6.5595   6.5595
     6.6755   6.6755

          k = 1.5243 0.0000 0.0000 ( 36439 PWs)   bands (ev):

   -44.1664 -44.1664 -22.2660 -22.2660 -22.2169 -22.2169 -22.1054 -22.1053
    -8.0915  -7.9734  -6.9342  -6.8425  -5.7530  -5.2102  -4.9746  -4.6052
    -4.5433  -4.5109  -0.3319   0.2317   0.6721   0.7547   1.1906   1.6116
     1.6729   1.6854   1.8038   2.0176   2.1767   2.5103   2.6304   3.2497
     3.4582   3.5469   3.5569   3.6036   3.6978   3.8109   4.0706   4.2290
     4.2574   4.8141   6.0438   6.1833   6.4334   6.8468   6.9246   7.0274
     7.3162   7.4309

          k = 1.5243 0.0000 0.1485 ( 36476 PWs)   bands (ev):

   -44.1664 -44.1664 -22.2660 -22.2660 -22.2169 -22.2169 -22.1054 -22.1053
    -8.0758  -7.9927  -6.9190  -6.8545  -5.6998  -5.3523  -4.8615  -4.6078
    -4.5780  -4.4965  -0.2651   0.1444   0.6872   0.8155   1.1330   1.2470
     1.7184   1.7492   1.9173   2.0007   2.4000   2.5466   2.8823   3.1853
     3.3174   3.5330   3.5478   3.5876   3.7295   3.7423   4.0931   4.1646
     4.2412   4.5404   6.2717   6.4183   6.4587   6.8162   6.8375   7.0973
     7.1303   7.4584

          k = 1.5243 0.0000-0.2971 ( 36508 PWs)   bands (ev):

   -44.1664 -44.1664 -22.2660 -22.2660 -22.2169 -22.2169 -22.1054 -22.1054
    -8.0360  -8.0360  -6.8851  -6.8851  -5.5530  -5.5530  -4.7204  -4.7204
    -4.5240  -4.5240  -0.0794  -0.0794   0.8869   0.8869   0.9712   0.9712
     1.7464   1.7464   1.9673   1.9673   2.7398   2.7398   2.9937   2.9937
     3.3478   3.3478   3.5941   3.5941   3.6741   3.6741   4.0780   4.0780
     4.3123   4.3123   6.4703   6.4703   6.7111   6.7111   6.8482   6.8482
     7.3619   7.3619

          k =-0.2541-0.4514 0.0000 ( 36444 PWs)   bands (ev):

   -44.1673 -44.1673 -22.2707 -22.2707 -22.1943 -22.1943 -22.1080 -22.1078
    -8.4822  -8.3614  -7.0721  -6.9610  -5.9189  -5.3466  -4.7532  -4.6218
    -4.5898  -3.9170   0.2407   0.4786   0.9691   0.9871   1.3151   1.3771
     1.4219   1.7839   1.8136   2.4612   2.5302   3.2258   3.4418   3.4714
     3.5623   3.6157   3.8719   3.8952   3.9826   4.0700   4.1160   4.2974
     4.4022   4.8157   6.0983   6.1409   6.2647   6.3796   6.4333   6.8927
     6.9853   7.0831

          k =-0.2541-0.4514 0.1485 ( 36461 PWs)   bands (ev):

   -44.1673 -44.1673 -22.2707 -22.2707 -22.1943 -22.1943 -22.1079 -22.1078
    -8.4661  -8.3810  -7.0535  -6.9752  -5.8606  -5.4775  -4.7337  -4.6406
    -4.4464  -3.9914   0.3096   0.4739   0.7752   1.0542   1.2262   1.3551
     1.4666   1.7778   2.1431   2.4666   2.5188   2.9937   3.3736   3.4120
     3.5200   3.5895   3.7723   3.9163   4.0062   4.0741   4.3272   4.3895
     4.5332   4.8789   5.9108   5.9453   6.2398   6.3443   6.4411   6.7632
     7.1781   7.1957

          k =-0.2541-0.4514-0.2971 ( 36490 PWs)   bands (ev):

   -44.1673 -44.1673 -22.2707 -22.2707 -22.1943 -22.1943 -22.1079 -22.1079
    -8.4253  -8.4253  -7.0121  -7.0121  -5.6976  -5.6976  -4.6874  -4.6874
    -4.1917  -4.1917   0.4387   0.4387   0.7678   0.7678   1.3297   1.3297
     1.6620   1.6620   2.4767   2.4767   2.6189   2.6189   3.2869   3.2869
     3.5034   3.5034   3.9011   3.9011   4.0686   4.0686   4.3608   4.3608
     4.8994   4.8994   5.7261   5.7261   6.2530   6.2530   6.5648   6.5648
     7.3043   7.3043

          k = 0.0000-0.3869 0.0000 ( 36477 PWs)   bands (ev):

   -44.1677 -44.1677 -22.2726 -22.2726 -22.1849 -22.1849 -22.1090 -22.1088
    -8.6152  -8.4928  -7.1304  -7.0104  -5.9780  -5.3986  -4.7895  -4.6683
    -4.5092  -3.6966   0.1766   0.8860   1.1628   1.1877   1.3218   1.3490
     1.4002   1.6991   2.2409   2.8947   2.9339   2.9467   3.1392   3.3476
     3.4488   3.7599   3.9714   4.0319   4.0418   4.2686   4.4461   4.5396
     4.7853   4.9619   5.7000   5.9559   6.0208   6.1733   6.3021   6.6277
     6.9145   7.2262

          k = 0.0000-0.3869 0.1485 ( 36452 PWs)   bands (ev):

   -44.1677 -44.1677 -22.2726 -22.2726 -22.1849 -22.1849 -22.1090 -22.1088
    -8.5989  -8.5126  -7.1100  -7.0256  -5.9195  -5.5305  -4.7714  -4.6855
    -4.3490  -3.7950   0.2630   0.8790   1.0143   1.1995   1.3014   1.3561
     1.3923   1.8568   2.0817   2.9034   2.9401   2.9697   3.2304   3.3521
     3.4648   3.8334   3.9639   4.0140   4.1306   4.2604   4.3062   4.6391
     4.6843   4.7704   5.9041   5.9532   5.9995   6.2538   6.4102   6.5224
     6.7604   7.0224

          k = 0.0000-0.3869-0.2971 ( 36454 PWs)   bands (ev):

   -44.1677 -44.1677 -22.2726 -22.2726 -22.1849 -22.1849 -22.1089 -22.1089
    -8.5575  -8.5575  -7.0653  -7.0653  -5.7544  -5.7544  -4.7285  -4.7285
    -4.0479  -4.0479   0.5113   0.5113   1.2193   1.2193   1.3738   1.3738
     1.4137   1.4137   2.5588   2.5588   2.9229   2.9229   3.3211   3.3211
     3.8207   3.8207   4.0214   4.0214   4.1347   4.1347   4.3376   4.3376
     4.7239   4.7239   5.9501   5.9501   6.2444   6.2444   6.4870   6.4870
     6.6861   6.6861

          k =-2.0325 0.0000 0.0000 ( 36452 PWs)   bands (ev):

   -44.1677 -44.1677 -22.2726 -22.2726 -22.1849 -22.1849 -22.1090 -22.1088
    -8.6142  -8.4925  -7.1288  -7.0085  -5.9852  -5.4022  -4.7949  -4.6637
    -4.5102  -3.6967   0.1826   0.8902   1.1964   1.2787   1.3007   1.3487
     1.3999   1.7426   2.2384   2.9031   2.9416   2.9507   3.1219   3.2403
     3.3213   3.9016   3.9240   3.9593   4.0513   4.1769   4.4465   4.5254
     4.7837   4.9554   5.7167   5.9752   6.0382   6.2201   6.3109   6.6403
     6.8413   7.2262

          k =-2.0325 0.0000 0.1485 ( 36456 PWs)   bands (ev):

   -44.1677 -44.1677 -22.2726 -22.2726 -22.1849 -22.1849 -22.1090 -22.1088
    -8.5980  -8.5123  -7.1086  -7.0239  -5.9260  -5.5344  -4.7757  -4.6832
    -4.3491  -3.7950   0.2698   0.8918   1.0191   1.2933   1.3112   1.3559
     1.3920   1.8618   2.1094   2.9112   2.9448   2.9851   3.1460   3.2460
     3.3895   3.9257   3.9698   4.0023   4.0974   4.1554   4.2984   4.6335
     4.6824   4.7686   5.9272   5.9689   6.0133   6.2693   6.4175   6.5346
     6.6981   7.0240

          k =-2.0325 0.0000-0.2971 ( 36460 PWs)   bands (ev):

   -44.1677 -44.1677 -22.2726 -22.2726 -22.1849 -22.1849 -22.1089 -22.1089
    -8.5569  -8.5569  -7.0638  -7.0638  -5.7594  -5.7594  -4.7297  -4.7297
    -4.0477  -4.0477   0.5205   0.5205   1.2658   1.2658   1.3735   1.3735
     1.4263   1.4263   2.5832   2.5832   2.9291   2.9291   3.1879   3.1879
     3.8390   3.8390   4.0224   4.0224   4.1242   4.1242   4.2985   4.2985
     4.7212   4.7212   5.9626   5.9626   6.2700   6.2700   6.4483   6.4483
     6.6906   6.6906

     the Fermi energy is     5.2383 ev

!    total energy              =   -4240.89518495 Ry

     total all-electron energy =   -150287.588880 Ry
     estimated scf accuracy    <          3.6E-11 Ry
     smearing contrib. (-TS)   =       0.00000000 Ry
     internal energy E=F+TS    =   -4240.89518495 Ry

     The total energy is F=E-TS. E is the sum of the following terms:
     one-electron contribution =    -169.65479693 Ry
     hartree contribution      =     118.25380873 Ry
     xc contribution           =    -201.70621040 Ry
     ewald contribution        =    -220.22859622 Ry
     one-center paw contrib.   =   -3767.55939012 Ry

     convergence has been achieved in  16 iterations

     Forces acting on atoms (cartesian axes, Ry/au):

     atom    1 type  1   force =     0.00000000    0.02871910    0.00000000
     atom    2 type  1   force =     0.00000000   -0.02871910    0.00000000
     atom    3 type  2   force =     0.00000000   -0.00055041    0.00000000
     atom    4 type  2   force =     0.00000000    0.00055041    0.00000000
     atom    5 type  2   force =     0.00000000   -0.00674162   -0.00531037
     atom    6 type  2   force =     0.00000000    0.00674162    0.00531037
     atom    7 type  2   force =     0.00000000   -0.00674162    0.00531037
     atom    8 type  2   force =     0.00000000    0.00674162   -0.00531037
     atom    9 type  2   force =     0.00000000   -0.05807067   -0.07204004
     atom   10 type  2   force =    -0.00000000    0.05807067    0.07204004
     atom   11 type  2   force =     0.00000000   -0.05807067    0.07204004
     atom   12 type  2   force =     0.00000000    0.05807067   -0.07204004

     Total force =     0.190244     Total SCF correction =     0.000009


     Computing stress (Cartesian axis) and pressure

          total   stress  (Ry/bohr**3)                   (kbar)     P=       17.42
   0.00015699   0.00000000   0.00000000           23.09        0.00        0.00
   0.00000000   0.00005207   0.00000000            0.00        7.66        0.00
   0.00000000   0.00000000   0.00014622            0.00        0.00       21.51

 
     init_run     :     19.66s CPU     20.16s WALL (       1 calls)
     electrons    :    860.31s CPU    870.38s WALL (       1 calls)
     forces       :      6.63s CPU      6.89s WALL (       1 calls)
     stress       :     41.53s CPU     42.15s WALL (       1 calls)

     Called by init_run:
     wfcinit      :     14.98s CPU     15.16s WALL (       1 calls)
     potinit      :      1.46s CPU      1.52s WALL (       1 calls)
     hinit0       :      1.74s CPU      1.78s WALL (       1 calls)

     Called by electrons:
     c_bands      :    720.28s CPU    723.66s WALL (      17 calls)
     sum_band     :    116.81s CPU    120.40s WALL (      17 calls)
     v_of_rho     :      5.33s CPU      5.59s WALL (      17 calls)
     newd         :     12.96s CPU     15.98s WALL (      17 calls)
     PAW_pot      :      5.31s CPU      5.32s WALL (      17 calls)
     mix_rho      :      0.72s CPU      0.74s WALL (      17 calls)

     Called by c_bands:
     init_us_2    :     10.55s CPU     10.61s WALL (    2331 calls)
     cegterg      :    650.76s CPU    653.54s WALL (    1071 calls)

     Called by *egterg:
     cdiaghg      :     24.97s CPU     25.07s WALL (    7360 calls)
     h_psi        :    500.23s CPU    502.74s WALL (    7486 calls)
     s_psi        :     40.80s CPU     40.88s WALL (    7486 calls)
     g_psi        :      1.81s CPU      1.82s WALL (    6352 calls)

     Called by h_psi:
     h_psi:calbec :     35.40s CPU     35.47s WALL (    7486 calls)
     vloc_psi     :    421.52s CPU    423.83s WALL (    7486 calls)
     add_vuspsi   :     40.48s CPU     40.53s WALL (    7486 calls)

     General routines
     calbec       :     47.27s CPU     47.37s WALL (    8872 calls)
     fft          :      3.48s CPU      3.60s WALL (     245 calls)
     ffts         :      0.08s CPU      0.08s WALL (      34 calls)
     fftw         :    388.57s CPU    390.60s WALL (  395032 calls)
     interpolate  :      0.27s CPU      0.27s WALL (      17 calls)
 
     Parallel routines
 
     PWSCF        :  15m28.42s CPU  15m41.15s WALL

 
   This run was terminated on:  15:32:33  19Nov2021            

=------------------------------------------------------------------------------=
   JOB DONE.
=------------------------------------------------------------------------------=
