
     Program PWSCF v.6.8 starts on 19Nov2021 at 15:16:33 

     This program is part of the open-source Quantum ESPRESSO suite
     for quantum simulation of materials; please cite
         "P. Giannozzi et al., J. Phys.:Condens. Matter 21 395502 (2009);
         "P. Giannozzi et al., J. Phys.:Condens. Matter 29 465901 (2017);
         "P. Giannozzi et al., J. Chem. Phys. 152 154105 (2020);
          URL http://www.quantum-espresso.org", 
     in publications or presentations arising from this work. More details at
     http://www.quantum-espresso.org/quote

     Parallel version (MPI), running on    10 processors

     MPI processes distributed on     1 nodes
     R & G space division:  proc/nbgrp/npool/nimage =      10
     73182 MiB available memory on the printing compute node when the environment starts
 
     Waiting for input...
     Reading input from standard input

     Current dimensions of program PWSCF are:
     Max number of different atomic species (ntypx) = 10
     Max number of k-points (npk) =  40000
     Max angular momentum in pseudopotentials (lmaxx) =  4
     file Zr.pbe-spn-kjpaw_psl.1.0.0.UPF: wavefunction(s)  4S 4P renormalized
     file Te.pbe-n-kjpaw_psl.1.0.0.UPF: wavefunction(s)  5S 5P renormalized
     Message from routine setup:
     using ibrav=0 with symmetry is DISCOURAGED, use correct ibrav instead

     Subspace diagonalization in iterative solution of the eigenvalue problem:
     a serial algorithm will be used

 
     Parallelization info
     --------------------
     sticks:   dense  smooth     PW     G-vecs:    dense   smooth      PW
     Min         734     293     87               115340    29174    4753
     Max         735     295     88               115345    29176    4760
     Sum        7345    2937    873              1153415   291749   47557
 
     Using Slab Decomposition
 


     bravais-lattice index     =            0
     lattice parameter (alat)  =      15.5510  a.u.
     unit-cell volume          =    3018.5011 (a.u.)^3
     number of atoms/cell      =           12
     number of atomic types    =            2
     number of electrons       =        84.00
     number of Kohn-Sham states=           50
     kinetic-energy cutoff     =      80.0000  Ry
     charge density cutoff     =     800.0000  Ry
     scf convergence threshold =      1.0E-10
     mixing beta               =       0.7000
     number of iterations used =            8  plain     mixing
     Exchange-correlation= SLA  PW   PBX  PBC
                           (   1   4   3   4   0   0   0)

     celldm(1)=  15.551040  celldm(2)=   0.000000  celldm(3)=   0.000000
     celldm(4)=   0.000000  celldm(5)=   0.000000  celldm(6)=   0.000000

     crystal axes: (cart. coord. in units of alat)
               a(1) = (   0.246007  -0.969268   0.000000 )  
               a(2) = (   0.246007   0.969268   0.000000 )  
               a(3) = (   0.000000   0.000000   1.683031 )  

     reciprocal axes: (cart. coord. in units 2 pi/alat)
               b(1) = (  2.032465 -0.515853  0.000000 )  
               b(2) = (  2.032465  0.515853  0.000000 )  
               b(3) = (  0.000000  0.000000  0.594166 )  


     PseudoPot. # 1 for Zr read from file:
     pseudo/Zr.pbe-spn-kjpaw_psl.1.0.0.UPF
     MD5 check sum: 02112c41713a0468aff2bb39ef194e36
     Pseudo is Projector augmented-wave + core cor, Zval = 12.0
     Generated using &quot;atomic&quot; code by A. Dal Corso  v.6.2.2
     Shape of augmentation charge: PSQ
     Using radial grid of 1225 points,  6 beta functions with: 
                l(1) =   0
                l(2) =   0
                l(3) =   1
                l(4) =   1
                l(5) =   2
                l(6) =   2
     Q(r) pseudized with 0 coefficients 


     PseudoPot. # 2 for Te read from file:
     pseudo/Te.pbe-n-kjpaw_psl.1.0.0.UPF
     MD5 check sum: 66247bff2bd9dbf220fbb0bf5ab56e9d
     Pseudo is Projector augmented-wave + core cor, Zval =  6.0
     Generated using &quot;atomic&quot; code by A. Dal Corso  v.6.3
     Shape of augmentation charge: PSQ
     Using radial grid of 1245 points,  6 beta functions with: 
                l(1) =   0
                l(2) =   0
                l(3) =   1
                l(4) =   1
                l(5) =   2
                l(6) =   2
     Q(r) pseudized with 0 coefficients 


     atomic species   valence    mass     pseudopotential
        Zr            12.00    91.22000     Zr( 1.00)
        Te             6.00   127.60000     Te( 1.00)

      8 Sym. Ops., with inversion, found ( 4 have fractional translation)



   Cartesian axes

     site n.     atom                  positions (alat units)
         1           Zr  tau(   1) = (   0.0000000   0.5977353   0.4207578  )
         2           Zr  tau(   2) = (   0.2460067   0.3715329   1.2622733  )
         3           Te  tau(   3) = (   0.2460067   0.3340902   0.4207578  )
         4           Te  tau(   4) = (   0.0000000   0.6351779   1.2622733  )
         5           Te  tau(   5) = (   0.2460067   0.8134092   0.2545094  )
         6           Te  tau(   6) = (   0.0000000   0.1558589   1.4285217  )
         7           Te  tau(   7) = (   0.2460067   0.8134092   0.5870061  )
         8           Te  tau(   8) = (   0.0000000   0.1558589   1.0960249  )
         9           Te  tau(   9) = (   0.0000000   0.4286827   0.7440398  )
        10           Te  tau(  10) = (   0.2460067   0.5405854   0.9389912  )
        11           Te  tau(  11) = (   0.0000000   0.4286827   0.0974757  )
        12           Te  tau(  12) = (   0.2460067   0.5405854   1.5855554  )

     number of k points=    63  Methfessel-Paxton smearing, width (Ry)=  0.0030
                       cart. coord. in units 2pi/alat
        k(    1) = (   0.0000000   0.0000000   0.0000000), wk =   0.0078125
        k(    2) = (   0.0000000   0.0000000   0.1485415), wk =   0.0156250
        k(    3) = (   0.0000000   0.0000000  -0.2970830), wk =   0.0078125
        k(    4) = (   0.2540581   0.0644816   0.0000000), wk =   0.0312500
        k(    5) = (   0.2540581   0.0644816   0.1485415), wk =   0.0625000
        k(    6) = (   0.2540581   0.0644816  -0.2970830), wk =   0.0312500
        k(    7) = (   0.5081162   0.1289633   0.0000000), wk =   0.0312500
        k(    8) = (   0.5081162   0.1289633   0.1485415), wk =   0.0625000
        k(    9) = (   0.5081162   0.1289633  -0.2970830), wk =   0.0312500
        k(   10) = (   0.7621743   0.1934449   0.0000000), wk =   0.0312500
        k(   11) = (   0.7621743   0.1934449   0.1485415), wk =   0.0625000
        k(   12) = (   0.7621743   0.1934449  -0.2970830), wk =   0.0312500
        k(   13) = (  -1.0162324  -0.2579266   0.0000000), wk =   0.0156250
        k(   14) = (  -1.0162324  -0.2579266   0.1485415), wk =   0.0312500
        k(   15) = (  -1.0162324  -0.2579266  -0.2970830), wk =   0.0156250
        k(   16) = (   0.5081162   0.0000000   0.0000000), wk =   0.0156250
        k(   17) = (   0.5081162   0.0000000   0.1485415), wk =   0.0312500
        k(   18) = (   0.5081162   0.0000000  -0.2970830), wk =   0.0156250
        k(   19) = (   0.7621743   0.0644816   0.0000000), wk =   0.0312500
        k(   20) = (   0.7621743   0.0644816   0.1485415), wk =   0.0625000
        k(   21) = (   0.7621743   0.0644816  -0.2970830), wk =   0.0312500
        k(   22) = (   1.0162324   0.1289633   0.0000000), wk =   0.0312500
        k(   23) = (   1.0162324   0.1289633   0.1485415), wk =   0.0625000
        k(   24) = (   1.0162324   0.1289633  -0.2970830), wk =   0.0312500
        k(   25) = (  -0.7621743  -0.3224082   0.0000000), wk =   0.0312500
        k(   26) = (  -0.7621743  -0.3224082   0.1485415), wk =   0.0625000
        k(   27) = (  -0.7621743  -0.3224082  -0.2970830), wk =   0.0312500
        k(   28) = (  -0.5081162  -0.2579266   0.0000000), wk =   0.0312500
        k(   29) = (  -0.5081162  -0.2579266   0.1485415), wk =   0.0625000
        k(   30) = (  -0.5081162  -0.2579266  -0.2970830), wk =   0.0312500
        k(   31) = (  -0.2540581  -0.1934449   0.0000000), wk =   0.0312500
        k(   32) = (  -0.2540581  -0.1934449   0.1485415), wk =   0.0625000
        k(   33) = (  -0.2540581  -0.1934449  -0.2970830), wk =   0.0312500
        k(   34) = (   0.0000000  -0.1289633   0.0000000), wk =   0.0156250
        k(   35) = (   0.0000000  -0.1289633   0.1485415), wk =   0.0312500
        k(   36) = (   0.0000000  -0.1289633  -0.2970830), wk =   0.0156250
        k(   37) = (   1.0162324   0.0000000   0.0000000), wk =   0.0156250
        k(   38) = (   1.0162324   0.0000000   0.1485415), wk =   0.0312500
        k(   39) = (   1.0162324   0.0000000  -0.2970830), wk =   0.0156250
        k(   40) = (   1.2702905   0.0644816   0.0000000), wk =   0.0312500
        k(   41) = (   1.2702905   0.0644816   0.1485415), wk =   0.0625000
        k(   42) = (   1.2702905   0.0644816  -0.2970830), wk =   0.0312500
        k(   43) = (  -0.5081162  -0.3868899   0.0000000), wk =   0.0312500
        k(   44) = (  -0.5081162  -0.3868899   0.1485415), wk =   0.0625000
        k(   45) = (  -0.5081162  -0.3868899  -0.2970830), wk =   0.0312500
        k(   46) = (  -0.2540581  -0.3224082   0.0000000), wk =   0.0312500
        k(   47) = (  -0.2540581  -0.3224082   0.1485415), wk =   0.0625000
        k(   48) = (  -0.2540581  -0.3224082  -0.2970830), wk =   0.0312500
        k(   49) = (   0.0000000  -0.2579266   0.0000000), wk =   0.0156250
        k(   50) = (   0.0000000  -0.2579266   0.1485415), wk =   0.0312500
        k(   51) = (   0.0000000  -0.2579266  -0.2970830), wk =   0.0156250
        k(   52) = (   1.5243485   0.0000000   0.0000000), wk =   0.0156250
        k(   53) = (   1.5243485   0.0000000   0.1485415), wk =   0.0312500
        k(   54) = (   1.5243485   0.0000000  -0.2970830), wk =   0.0156250
        k(   55) = (  -0.2540581  -0.4513715   0.0000000), wk =   0.0312500
        k(   56) = (  -0.2540581  -0.4513715   0.1485415), wk =   0.0625000
        k(   57) = (  -0.2540581  -0.4513715  -0.2970830), wk =   0.0312500
        k(   58) = (   0.0000000  -0.3868899   0.0000000), wk =   0.0156250
        k(   59) = (   0.0000000  -0.3868899   0.1485415), wk =   0.0312500
        k(   60) = (   0.0000000  -0.3868899  -0.2970830), wk =   0.0156250
        k(   61) = (  -2.0324647   0.0000000   0.0000000), wk =   0.0078125
        k(   62) = (  -2.0324647   0.0000000   0.1485415), wk =   0.0156250
        k(   63) = (  -2.0324647   0.0000000  -0.2970830), wk =   0.0078125

     Dense  grid:  1153415 G-vectors     FFT dimensions: ( 144, 144, 240)

     Smooth grid:   291749 G-vectors     FFT dimensions: (  90,  90, 150)

     Estimated max dynamical RAM per process >     657.19 MB

     Estimated total dynamical RAM >       6.42 GB

     Initial potential from superposition of free atoms

     starting charge   83.99353, renormalised to   84.00000
     Starting wfcs are   66 randomized atomic wfcs
     Checking if some PAW data can be deallocated... 

     total cpu time spent up to now is       21.0 secs

     Self-consistent Calculation

     iteration #  1     ecut=    80.00 Ry     beta= 0.70
     Davidson diagonalization with overlap
     ethr =  1.00E-02,  avg # of iterations =  2.2

     Threshold (ethr) on eigenvalues was too large:
     Diagonalizing with lowered threshold

     Davidson diagonalization with overlap
     ethr =  4.92E-04,  avg # of iterations =  4.0

     total cpu time spent up to now is      108.8 secs

     total energy              =   -4240.66977623 Ry
     estimated scf accuracy    <       0.46208034 Ry

     iteration #  2     ecut=    80.00 Ry     beta= 0.70
     Davidson diagonalization with overlap
     ethr =  5.50E-04,  avg # of iterations =  8.5

     total cpu time spent up to now is      174.6 secs

     total energy              =   -4240.55465339 Ry
     estimated scf accuracy    <       2.09032681 Ry

     iteration #  3     ecut=    80.00 Ry     beta= 0.70
     Davidson diagonalization with overlap
     ethr =  5.50E-04,  avg # of iterations =  5.3

     total cpu time spent up to now is      229.1 secs

     total energy              =   -4240.89478599 Ry
     estimated scf accuracy    <       0.00804923 Ry

     iteration #  4     ecut=    80.00 Ry     beta= 0.70
     Davidson diagonalization with overlap
     c_bands:  1 eigenvalues not converged
     c_bands:  1 eigenvalues not converged
     c_bands:  1 eigenvalues not converged
     c_bands:  3 eigenvalues not converged
     c_bands:  1 eigenvalues not converged
     c_bands:  1 eigenvalues not converged
     c_bands:  1 eigenvalues not converged
     c_bands:  4 eigenvalues not converged
     c_bands:  2 eigenvalues not converged
     c_bands:  1 eigenvalues not converged
     c_bands:  1 eigenvalues not converged
     c_bands:  3 eigenvalues not converged
     c_bands:  2 eigenvalues not converged
     c_bands:  1 eigenvalues not converged
     c_bands:  1 eigenvalues not converged
     c_bands:  2 eigenvalues not converged
     c_bands:  1 eigenvalues not converged
     c_bands:  1 eigenvalues not converged
     c_bands:  1 eigenvalues not converged
     ethr =  9.58E-06,  avg # of iterations = 16.8

     total cpu time spent up to now is      330.9 secs

     total energy              =   -4240.90336686 Ry
     estimated scf accuracy    <       0.03432764 Ry

     iteration #  5     ecut=    80.00 Ry     beta= 0.70
     Davidson diagonalization with overlap
     ethr =  9.58E-06,  avg # of iterations =  6.5

     total cpu time spent up to now is      383.9 secs

     total energy              =   -4240.90520409 Ry
     estimated scf accuracy    <       0.00570904 Ry

     iteration #  6     ecut=    80.00 Ry     beta= 0.70
     Davidson diagonalization with overlap
     ethr =  6.80E-06,  avg # of iterations =  4.0

     total cpu time spent up to now is      428.4 secs

     total energy              =   -4240.90567248 Ry
     estimated scf accuracy    <       0.00099827 Ry

     iteration #  7     ecut=    80.00 Ry     beta= 0.70
     Davidson diagonalization with overlap
     ethr =  1.19E-06,  avg # of iterations =  8.0

     total cpu time spent up to now is      491.4 secs

     total energy              =   -4240.90610061 Ry
     estimated scf accuracy    <       0.00069149 Ry

     iteration #  8     ecut=    80.00 Ry     beta= 0.70
     Davidson diagonalization with overlap
     ethr =  8.23E-07,  avg # of iterations =  2.0

     total cpu time spent up to now is      529.4 secs

     total energy              =   -4240.90611965 Ry
     estimated scf accuracy    <       0.00011006 Ry

     iteration #  9     ecut=    80.00 Ry     beta= 0.70
     Davidson diagonalization with overlap
     ethr =  1.31E-07,  avg # of iterations =  6.0

     total cpu time spent up to now is      580.7 secs

     total energy              =   -4240.90615265 Ry
     estimated scf accuracy    <       0.00000723 Ry

     iteration # 10     ecut=    80.00 Ry     beta= 0.70
     Davidson diagonalization with overlap
     ethr =  8.61E-09,  avg # of iterations =  5.5

     total cpu time spent up to now is      632.4 secs

     total energy              =   -4240.90615544 Ry
     estimated scf accuracy    <       0.00000053 Ry

     iteration # 11     ecut=    80.00 Ry     beta= 0.70
     Davidson diagonalization with overlap
     ethr =  6.33E-10,  avg # of iterations =  6.5

     total cpu time spent up to now is      688.5 secs

     total energy              =   -4240.90615576 Ry
     estimated scf accuracy    <          9.6E-09 Ry

     iteration # 12     ecut=    80.00 Ry     beta= 0.70
     Davidson diagonalization with overlap
     ethr =  1.14E-11,  avg # of iterations =  8.4

     total cpu time spent up to now is      757.9 secs

     total energy              =   -4240.90615578 Ry
     estimated scf accuracy    <          1.4E-09 Ry

     iteration # 13     ecut=    80.00 Ry     beta= 0.70
     Davidson diagonalization with overlap
     ethr =  1.70E-12,  avg # of iterations =  4.1

     total cpu time spent up to now is      804.0 secs

     total energy              =   -4240.90615578 Ry
     estimated scf accuracy    <          5.6E-10 Ry

     iteration # 14     ecut=    80.00 Ry     beta= 0.70
     Davidson diagonalization with overlap
     ethr =  6.69E-13,  avg # of iterations =  3.8

     total cpu time spent up to now is      847.1 secs

     End of self-consistent calculation

          k = 0.0000 0.0000 0.0000 ( 36359 PWs)   bands (ev):

   -44.1633 -44.1632 -22.2701 -22.2700 -22.1821 -22.1820 -22.1035 -22.1033
    -8.5347  -8.3962  -7.1388  -7.0082  -5.9674  -5.3835  -4.7577  -4.7090
    -4.5500  -3.7124   0.1401   0.8517   0.8652   1.1603   1.1823   1.4581
     1.5190   1.5207   2.2590   2.8437   2.9195   2.9357   3.1462   3.4499
     3.9475   4.0222   4.1365   4.1551   4.3371   4.4264   4.5612   4.6349
     4.7828   5.0813   5.6089   5.7882   5.8299   5.9707   6.2128   6.5828
     7.1963   7.2606

          k = 0.0000 0.0000 0.1485 ( 36415 PWs)   bands (ev):

   -44.1633 -44.1632 -22.2701 -22.2700 -22.1821 -22.1820 -22.1035 -22.1034
    -8.5167  -8.4191  -7.1153  -7.0235  -5.9110  -5.5223  -4.7467  -4.7152
    -4.3837  -3.8137   0.2208   0.8100   0.9196   0.9800   1.1418   1.4665
     1.5095   1.8285   1.9806   2.8560   2.9095   2.9423   3.3360   3.5270
     3.8646   4.0639   4.1180   4.1566   4.3334   4.4022   4.5347   4.6797
     4.7429   4.7702   5.7843   5.8270   5.8292   6.2126   6.3336   6.4699
     6.9896   7.0596

          k = 0.0000 0.0000-0.2971 ( 36410 PWs)   bands (ev):

   -44.1633 -44.1633 -22.2700 -22.2700 -22.1821 -22.1821 -22.1034 -22.1034
    -8.4703  -8.4703  -7.0654  -7.0654  -5.7490  -5.7490  -4.7301  -4.7301
    -4.0734  -4.0734   0.4552   0.4552   1.0080   1.0080   1.3719   1.3719
     1.4874   1.4874   2.4831   2.4831   2.8839   2.8839   3.6694   3.6694
     3.9172   3.9172   4.1798   4.1798   4.2613   4.2613   4.5150   4.5150
     4.7346   4.7346   5.8111   5.8111   6.1631   6.1631   6.6341   6.6341
     6.6521   6.6521

          k = 0.2541 0.0645 0.0000 ( 36396 PWs)   bands (ev):

   -44.1629 -44.1629 -22.2681 -22.2681 -22.1915 -22.1915 -22.1025 -22.1023
    -8.4037  -8.2665  -7.0769  -6.9580  -5.9116  -5.3349  -4.7138  -4.6641
    -4.6287  -3.9232   0.2073   0.5873   0.9537   0.9855   1.0911   1.3324
     1.3368   1.5616   1.7481   2.6115   2.6487   3.1281   3.3698   3.6838
     3.7664   3.8196   3.9206   3.9653   4.1118   4.3061   4.3367   4.4553
     4.5258   4.6596   5.9866   6.0090   6.1218   6.2322   6.3670   6.7944
     7.0765   7.2666

          k = 0.2541 0.0645 0.1485 ( 36423 PWs)   bands (ev):

   -44.1629 -44.1629 -22.2681 -22.2681 -22.1915 -22.1915 -22.1024 -22.1023
    -8.3859  -8.2892  -7.0555  -6.9720  -5.8554  -5.4725  -4.7059  -4.6700
    -4.4764  -4.0011   0.2750   0.5589   0.8256   1.0028   1.0333   1.2091
     1.3852   1.7133   1.9963   2.6148   2.6331   2.9126   3.4454   3.4866
     3.5190   3.8945   3.9922   4.0749   4.0910   4.2641   4.4569   4.5264
     4.6108   4.7523   5.9022   5.9761   6.1042   6.1768   6.2099   6.8676
     7.2062   7.2244

          k = 0.2541 0.0645-0.2971 ( 36436 PWs)   bands (ev):

   -44.1629 -44.1629 -22.2681 -22.2681 -22.1915 -22.1915 -22.1024 -22.1024
    -8.3399  -8.3399  -7.0101  -7.0101  -5.6951  -5.6951  -4.6879  -4.6879
    -4.2100  -4.2100   0.4417   0.4417   0.7922   0.7922   1.1270   1.1270
     1.6150   1.6150   2.4682   2.4682   2.6452   2.6452   3.3207   3.3207
     3.7181   3.7181   4.0486   4.0486   4.2100   4.2100   4.4989   4.4989
     4.8632   4.8632   5.7641   5.7641   6.1137   6.1137   6.5139   6.5139
     7.3328   7.3329

          k = 0.5081 0.1290 0.0000 ( 36499 PWs)   bands (ev):

   -44.1620 -44.1620 -22.2634 -22.2634 -22.2141 -22.2141 -22.0999 -22.0998
    -8.0177  -7.8836  -6.9283  -6.8351  -5.7616  -5.2110  -4.9678  -4.5937
    -4.5467  -4.5269  -0.2409   0.2572   0.7432   0.7773   1.1663   1.3244
     1.6390   1.6473   1.7267   2.0675   2.1352   2.4932   2.6518   3.4176
     3.4553   3.5502   3.6052   3.7563   3.7675   3.8582   4.0416   4.2779
     4.2881   4.7678   6.0249   6.2377   6.3500   6.6150   6.6768   7.1243
     7.3869   7.5344

          k = 0.5081 0.1290 0.1485 ( 36476 PWs)   bands (ev):

   -44.1620 -44.1620 -22.2634 -22.2634 -22.2141 -22.2141 -22.0999 -22.0998
    -8.0003  -7.9059  -6.9116  -6.8462  -5.7089  -5.3581  -4.8473  -4.6032
    -4.5745  -4.5151  -0.1794   0.1903   0.7370   0.8231   1.1388   1.2074
     1.4087   1.5967   1.9985   2.0873   2.2625   2.5545   2.9132   3.3017
     3.4559   3.5003   3.5621   3.7327   3.7958   3.8165   3.9256   4.2782
     4.3219   4.4558   6.3053   6.3750   6.4736   6.6142   6.7563   7.0046
     7.2526   7.5247

          k = 0.5081 0.1290-0.2971 ( 36466 PWs)   bands (ev):

   -44.1620 -44.1620 -22.2634 -22.2634 -22.2141 -22.2141 -22.0999 -22.0999
    -7.9555  -7.9555  -6.8761  -6.8761  -5.5621  -5.5621  -4.7039  -4.7039
    -4.5372  -4.5372  -0.0078  -0.0078   0.8876   0.8876   0.9881   0.9881
     1.4868   1.4868   2.0568   2.0568   2.6199   2.6199   3.1867   3.1867
     3.3798   3.3798   3.6043   3.6043   3.7876   3.7876   3.9782   3.9782
     4.3672   4.3672   6.5290   6.5290   6.5759   6.5759   6.9000   6.9000
     7.3234   7.3234

          k = 0.7622 0.1934 0.0000 ( 36521 PWs)   bands (ev):

   -44.1612 -44.1611 -22.2587 -22.2587 -22.2367 -22.2367 -22.0974 -22.0973
    -7.4063  -7.2700  -6.7874  -6.7023  -5.7675  -5.6387  -5.1579  -5.0958
    -4.4643  -4.4250  -0.3767   0.0038   0.0359   0.8659   0.8892   1.3186
     1.4937   1.5917   2.0231   2.0894   2.2238   2.3306   2.4844   2.8236
     3.0441   3.1844   3.3470   3.4174   3.5426   3.6536   3.7061   3.7715
     3.9282   4.6047   6.3590   6.5285   6.6729   6.9923   7.0099   7.0608
     7.4133   7.6115

          k = 0.7622 0.1934 0.1485 ( 36503 PWs)   bands (ev):

   -44.1612 -44.1611 -22.2587 -22.2587 -22.2367 -22.2367 -22.0974 -22.0973
    -7.3893  -7.2938  -6.7719  -6.7126  -5.7454  -5.6539  -5.1531  -5.1099
    -4.4574  -4.4298  -0.3382  -0.0699   0.1433   0.7328   0.9260   1.2575
     1.5010   1.5857   1.9744   2.0150   2.2135   2.5389   2.7229   2.9127
     2.9732   3.0169   3.2705   3.3175   3.5038   3.5899   3.8111   3.9298
     4.0079   4.4680   6.2031   6.4998   6.8056   6.9627   7.0637   7.1623
     7.2482   7.6723

          k = 0.7622 0.1934-0.2971 ( 36522 PWs)   bands (ev):

   -44.1612 -44.1612 -22.2587 -22.2587 -22.2367 -22.2367 -22.0974 -22.0974
    -7.3447  -7.3447  -6.7397  -6.7397  -5.6962  -5.6962  -5.1362  -5.1362
    -4.4426  -4.4426  -0.2215  -0.2215   0.4212   0.4212   1.0705   1.0705
     1.5509   1.5509   1.9706   1.9706   2.4774   2.4774   2.8594   2.8594
     2.9388   2.9388   3.2461   3.2461   3.5859   3.5859   3.9699   3.9699
     4.1175   4.1175   6.5151   6.5151   6.5855   6.5855   7.1008   7.1008
     7.6229   7.6231

          k =-1.0162-0.2579 0.0000 ( 36506 PWs)   bands (ev):

   -44.1608 -44.1608 -22.2567 -22.2567 -22.2460 -22.2460 -22.0963 -22.0963
    -6.8103  -6.7882  -6.4821  -6.4790  -6.4626  -6.4500  -5.1170  -5.1165
    -4.4053  -4.3734  -0.2170  -0.2003   0.0856   0.1064   1.0145   1.0207
     1.4667   1.6523   2.1875   2.3398   2.3745   2.4021   2.7681   2.8542
     2.8810   2.9367   3.1668   3.2017   3.2717   3.3288   3.4265   3.5791
     4.0674   4.3052   6.7404   6.8031   6.9533   6.9632   7.1529   7.2551
     7.2555   7.3305

          k =-1.0162-0.2579 0.1485 ( 36506 PWs)   bands (ev):

   -44.1608 -44.1608 -22.2567 -22.2567 -22.2460 -22.2460 -22.0963 -22.0963
    -6.8030  -6.7867  -6.5209  -6.5143  -6.4259  -6.4207  -5.1158  -5.1155
    -4.4024  -4.3799  -0.3028  -0.2975   0.2513   0.2598   1.0114   1.0177
     1.4569   1.5850   2.1014   2.2556   2.3117   2.3843   2.6111   2.6510
     2.9174   2.9957   3.1414   3.2345   3.4559   3.5245   3.5806   3.6599
     4.1689   4.3142   6.4334   6.4559   6.6384   6.7163   7.2689   7.2729
     7.5062   7.5743

          k =-1.0162-0.2579-0.2971 ( 36528 PWs)   bands (ev):

   -44.1608 -44.1608 -22.2567 -22.2567 -22.2460 -22.2460 -22.0963 -22.0963
    -6.7902  -6.7902  -6.5387  -6.5387  -6.4067  -6.4067  -5.1145  -5.1145
    -4.3929  -4.3929  -0.3580  -0.3580   0.3989   0.3989   0.9927   0.9927
     1.4948   1.4948   2.0238   2.0238   2.3256   2.3256   2.7367   2.7367
     2.7766   2.7766   3.2288   3.2288   3.6060   3.6060   3.7458   3.7458
     4.3339   4.3339   6.1239   6.1239   6.5748   6.5748   7.2801   7.2801
     7.6529   7.6529

          k = 0.5081 0.0000 0.0000 ( 36503 PWs)   bands (ev):

   -44.1620 -44.1620 -22.2634 -22.2634 -22.2141 -22.2141 -22.0999 -22.0998
    -8.0189  -7.8838  -6.9283  -6.8352  -5.7589  -5.2100  -4.9658  -4.5863
    -4.5552  -4.5263  -0.2370   0.2502   0.7551   0.7776   1.1631   1.2873
     1.6344   1.6349   1.7103   2.0743   2.1311   2.4832   2.6570   3.4311
     3.4462   3.5854   3.6178   3.7493   3.7696   3.9028   4.0190   4.2923
     4.3138   4.7544   6.0315   6.2128   6.3781   6.5793   6.6244   7.1650
     7.3894   7.5659

          k = 0.5081 0.0000 0.1485 ( 36453 PWs)   bands (ev):

   -44.1620 -44.1620 -22.2634 -22.2634 -22.2141 -22.2141 -22.0999 -22.0998
    -8.0014  -7.9064  -6.9114  -6.8462  -5.7065  -5.3570  -4.8446  -4.6032
    -4.5717  -4.5191  -0.1764   0.1858   0.7443   0.8231   1.1437   1.1962
     1.3704   1.5751   1.9986   2.1057   2.2421   2.5456   2.9170   3.3137
     3.4796   3.4909   3.5756   3.7542   3.7906   3.8715   3.8799   4.3011
     4.3528   4.4319   6.2905   6.3814   6.4919   6.5737   6.7192   7.0400
     7.2613   7.5470

          k = 0.5081 0.0000-0.2971 ( 36452 PWs)   bands (ev):

   -44.1620 -44.1620 -22.2634 -22.2634 -22.2141 -22.2141 -22.0999 -22.0999
    -7.9564  -7.9564  -6.8759  -6.8759  -5.5604  -5.5604  -4.7012  -4.7012
    -4.5391  -4.5391  -0.0074  -0.0074   0.8849   0.8849   0.9920   0.9920
     1.4546   1.4546   2.0621   2.0621   2.6079   2.6079   3.1975   3.1975
     3.3903   3.3903   3.6038   3.6038   3.8202   3.8202   3.9584   3.9584
     4.3837   4.3837   6.5328   6.5328   6.5500   6.5500   6.9168   6.9168
     7.3284   7.3285

          k = 0.7622 0.0645 0.0000 ( 36505 PWs)   bands (ev):

   -44.1612 -44.1611 -22.2587 -22.2587 -22.2367 -22.2367 -22.0974 -22.0973
    -7.4093  -7.2707  -6.7845  -6.7014  -5.7682  -5.6372  -5.1566  -5.0960
    -4.4523  -4.4375  -0.3690   0.0131   0.0325   0.8574   0.9173   1.3312
     1.4692   1.5504   1.9876   2.0751   2.2587   2.3516   2.4334   2.7992
     3.0364   3.2202   3.3507   3.4294   3.6069   3.6731   3.7146   3.7524
     3.8577   4.6200   6.3574   6.4966   6.7049   6.9844   7.0194   7.0449
     7.4148   7.6655

          k = 0.7622 0.0645 0.1485 ( 36509 PWs)   bands (ev):

   -44.1612 -44.1611 -22.2587 -22.2587 -22.2367 -22.2367 -22.0974 -22.0973
    -7.3920  -7.2949  -6.7690  -6.7111  -5.7460  -5.6529  -5.1520  -5.1099
    -4.4490  -4.4387  -0.3304  -0.0624   0.1404   0.7241   0.9511   1.2686
     1.4765   1.5803   1.9442   1.9648   2.2213   2.5338   2.7269   2.9003
     2.9826   3.0080   3.2996   3.3221   3.5449   3.5788   3.8009   3.9644
     3.9682   4.4578   6.2278   6.4748   6.8262   6.9608   7.0417   7.1887
     7.2293   7.7114

          k = 0.7622 0.0645-0.2971 ( 36472 PWs)   bands (ev):

   -44.1611 -44.1611 -22.2587 -22.2587 -22.2367 -22.2367 -22.0974 -22.0974
    -7.3468  -7.3468  -6.7373  -6.7373  -5.6962  -5.6962  -5.1355  -5.1355
    -4.4427  -4.4427  -0.2140  -0.2140   0.4156   0.4156   1.0873   1.0873
     1.5473   1.5473   1.9183   1.9183   2.4866   2.4866   2.8636   2.8636
     2.9127   2.9127   3.2889   3.2889   3.5826   3.5826   4.0066   4.0066
     4.0698   4.0698   6.5455   6.5455   6.5815   6.5815   7.0729   7.0729
     7.6514   7.6514

          k = 1.0162 0.1290 0.0000 ( 36514 PWs)   bands (ev):

   -44.1608 -44.1608 -22.2567 -22.2567 -22.2460 -22.2460 -22.0963 -22.0963
    -6.8103  -6.7882  -6.4821  -6.4790  -6.4625  -6.4501  -5.1170  -5.1166
    -4.4053  -4.3734  -0.2226  -0.1947   0.0837   0.1084   1.0050   1.0308
     1.4743   1.6412   2.1829   2.3477   2.3836   2.3921   2.7488   2.8873
     2.8902   2.9274   3.1583   3.1885   3.2814   3.3134   3.4433   3.5780
     4.0484   4.3243   6.7330   6.8154   6.9297   6.9864   7.1796   7.2549
     7.2573   7.3052

          k = 1.0162 0.1290 0.1485 ( 36524 PWs)   bands (ev):

   -44.1608 -44.1608 -22.2567 -22.2567 -22.2460 -22.2460 -22.0963 -22.0963
    -6.8030  -6.7867  -6.5209  -6.5143  -6.4259  -6.4208  -5.1158  -5.1155
    -4.4024  -4.3799  -0.3053  -0.2952   0.2523   0.2592   1.0073   1.0218
     1.4640   1.5776   2.1050   2.2413   2.3158   2.3868   2.6097   2.6605
     2.9032   3.0101   3.1430   3.2289   3.4633   3.4958   3.6082   3.6559
     4.1488   4.3339   6.4309   6.4658   6.6344   6.7178   7.2701   7.2731
     7.5134   7.5663

          k = 1.0162 0.1290-0.2971 ( 36516 PWs)   bands (ev):

   -44.1608 -44.1608 -22.2567 -22.2567 -22.2460 -22.2460 -22.0963 -22.0963
    -6.7902  -6.7902  -6.5387  -6.5387  -6.4067  -6.4067  -5.1145  -5.1145
    -4.3929  -4.3929  -0.3581  -0.3581   0.3991   0.3991   0.9925   0.9925
     1.4961   1.4961   2.0236   2.0236   2.3227   2.3227   2.7165   2.7165
     2.8020   2.8020   3.2237   3.2237   3.6076   3.6076   3.7456   3.7456
     4.3348   4.3348   6.1273   6.1273   6.5738   6.5738   7.2806   7.2806
     7.6518   7.6518

          k =-0.7622-0.3224 0.0000 ( 36511 PWs)   bands (ev):

   -44.1612 -44.1611 -22.2587 -22.2587 -22.2367 -22.2367 -22.0974 -22.0973
    -7.4020  -7.2692  -6.7919  -6.7034  -5.7665  -5.6409  -5.1597  -5.0954
    -4.4734  -4.4151  -0.3875  -0.0059   0.0373   0.8569   0.8778   1.3032
     1.5018   1.6669   2.0900   2.1121   2.2107   2.2996   2.4827   2.8621
     3.0504   3.1721   3.3391   3.4027   3.5113   3.6112   3.6924   3.7092
     4.0668   4.5764   6.3613   6.5725   6.6442   6.9150   7.0472   7.1328
     7.4010   7.5386

          k =-0.7622-0.3224 0.1485 ( 36492 PWs)   bands (ev):

   -44.1611 -44.1611 -22.2587 -22.2587 -22.2367 -22.2367 -22.0974 -22.0973
    -7.3853  -7.2922  -6.7762  -6.7144  -5.7446  -5.6553  -5.1546  -5.1100
    -4.4638  -4.4229  -0.3489  -0.0799   0.1468   0.7450   0.8966   1.2415
     1.5231   1.6028   2.0188   2.0865   2.2123   2.5373   2.6918   2.9365
     2.9727   3.0404   3.2484   3.2917   3.4737   3.5743   3.8002   3.8801
     4.0892   4.4804   6.1710   6.5385   6.7704   6.9610   7.0782   7.1710
     7.2695   7.5972

          k =-0.7622-0.3224-0.2971 ( 36508 PWs)   bands (ev):

   -44.1611 -44.1611 -22.2587 -22.2587 -22.2367 -22.2367 -22.0974 -22.0974
    -7.3418  -7.3418  -6.7431  -6.7431  -5.6961  -5.6961  -5.1371  -5.1371
    -4.4425  -4.4425  -0.2319  -0.2319   0.4286   0.4286   1.0504   1.0504
     1.5578   1.5578   2.0372   2.0372   2.4729   2.4729   2.8562   2.8562
     2.9724   2.9724   3.1888   3.1888   3.5834   3.5834   3.9220   3.9220
     4.1815   4.1815   6.4808   6.4808   6.5850   6.5850   7.1445   7.1445
     7.5584   7.5585

          k =-0.5081-0.2579 0.0000 ( 36480 PWs)   bands (ev):

   -44.1620 -44.1620 -22.2634 -22.2634 -22.2141 -22.2141 -22.0999 -22.0998
    -8.0148  -7.8829  -6.9287  -6.8346  -5.7684  -5.2133  -4.9728  -4.6044
    -4.5333  -4.5281  -0.2503   0.2740   0.7243   0.7678   1.1744   1.4216
     1.6476   1.6777   1.7739   2.0541   2.1348   2.5141   2.6375   3.3572
     3.4818   3.5019   3.5944   3.6943   3.7742   3.7875   4.1060   4.1895
     4.2765   4.7965   6.0115   6.2650   6.3168   6.7058   6.8044   7.0313
     7.3775   7.4663

          k =-0.5081-0.2579 0.1485 ( 36485 PWs)   bands (ev):

   -44.1620 -44.1620 -22.2634 -22.2634 -22.2141 -22.2141 -22.0999 -22.0998
    -7.9977  -7.9048  -6.9121  -6.8461  -5.7148  -5.3606  -4.8537  -4.6033
    -4.5799  -4.5069  -0.1867   0.2011   0.7233   0.8187   1.1330   1.2323
     1.5063   1.6569   1.9856   2.0585   2.3014   2.5725   2.9026   3.2566
     3.4146   3.5154   3.5387   3.6830   3.7375   3.7839   4.0088   4.2080
     4.2811   4.4930   6.3368   6.3446   6.4494   6.7053   6.8518   6.9323
     7.2245   7.4782

          k =-0.5081-0.2579-0.2971 ( 36478 PWs)   bands (ev):

   -44.1620 -44.1620 -22.2634 -22.2634 -22.2141 -22.2141 -22.0999 -22.0999
    -7.9536  -7.9536  -6.8767  -6.8767  -5.5660  -5.5660  -4.7102  -4.7102
    -4.5329  -4.5329  -0.0089  -0.0089   0.8944   0.8944   0.9791   0.9791
     1.5731   1.5731   2.0374   2.0374   2.6558   2.6558   3.1414   3.1414
     3.3607   3.3607   3.6004   3.6004   3.7243   3.7243   4.0195   4.0195
     4.3309   4.3309   6.4991   6.4991   6.6532   6.6532   6.8625   6.8625
     7.3178   7.3178

          k =-0.2541-0.1934 0.0000 ( 36410 PWs)   bands (ev):

   -44.1629 -44.1629 -22.2681 -22.2681 -22.1915 -22.1915 -22.1025 -22.1023
    -8.4017  -8.2660  -7.0741  -6.9566  -5.9224  -5.3399  -4.7318  -4.6568
    -4.6208  -3.9238   0.2290   0.5810   0.9586   1.0267   1.1149   1.3612
     1.3617   1.6136   1.7604   2.5824   2.6382   3.1334   3.4188   3.6633
     3.7408   3.7673   3.9111   3.9216   3.9589   4.2225   4.2797   4.4180
     4.4713   4.7005   6.0381   6.0680   6.2140   6.2200   6.3958   6.8456
     7.0372   7.1993

          k =-0.2541-0.1934 0.1485 ( 36427 PWs)   bands (ev):

   -44.1629 -44.1629 -22.2681 -22.2681 -22.1915 -22.1915 -22.1024 -22.1023
    -8.3840  -8.2884  -7.0532  -6.9707  -5.8651  -5.4779  -4.7197  -4.6615
    -4.4744  -4.0012   0.2971   0.5571   0.8257   1.0350   1.0871   1.2363
     1.4049   1.7241   2.0332   2.5828   2.6279   2.9207   3.4520   3.4891
     3.5621   3.8293   3.8901   3.9154   4.0565   4.2268   4.4216   4.4643
     4.5819   4.7913   5.9167   5.9669   6.1437   6.2509   6.2846   6.8593
     7.1804   7.2087

          k =-0.2541-0.1934-0.2971 ( 36422 PWs)   bands (ev):

   -44.1629 -44.1629 -22.2681 -22.2681 -22.1915 -22.1915 -22.1024 -22.1024
    -8.3385  -8.3385  -7.0085  -7.0085  -5.7025  -5.7025  -4.6905  -4.6905
    -4.2092  -4.2092   0.4573   0.4573   0.8014   0.8014   1.1745   1.1745
     1.6266   1.6266   2.4763   2.4763   2.6439   2.6439   3.3200   3.3200
     3.7511   3.7511   3.8672   3.8672   4.1857   4.1857   4.4446   4.4446
     4.8798   4.8798   5.7501   5.7501   6.1834   6.1834   6.5265   6.5265
     7.3218   7.3218

          k = 0.0000-0.1290 0.0000 ( 36417 PWs)   bands (ev):

   -44.1633 -44.1632 -22.2701 -22.2700 -22.1821 -22.1820 -22.1035 -22.1033
    -8.5337  -8.3959  -7.1367  -7.0072  -5.9744  -5.3870  -4.7666  -4.7022
    -4.5496  -3.7126   0.1534   0.8535   0.9059   1.1722   1.1942   1.4578
     1.5187   1.5552   2.2550   2.8506   2.9238   2.9351   3.1470   3.4887
     3.9452   4.0106   4.0130   4.0170   4.2851   4.4268   4.5169   4.6209
     4.7812   5.0670   5.6257   5.8339   5.8846   5.9973   6.2211   6.6017
     7.1965   7.2073

          k = 0.0000-0.1290 0.1485 ( 36419 PWs)   bands (ev):

   -44.1633 -44.1633 -22.2701 -22.2700 -22.1821 -22.1820 -22.1035 -22.1034
    -8.5157  -8.4187  -7.1135  -7.0226  -5.9174  -5.5261  -4.7546  -4.7095
    -4.3835  -3.8137   0.2350   0.8334   0.9448   0.9850   1.1638   1.4662
     1.5092   1.8352   1.9960   2.8625   2.9142   2.9477   3.3228   3.5680
     3.8769   3.9848   4.0234   4.0527   4.3279   4.3464   4.4983   4.6721
     4.7339   4.7684   5.8167   5.8541   5.8783   6.2194   6.3405   6.4887
     6.9911   7.0163

          k = 0.0000-0.1290-0.2971 ( 36464 PWs)   bands (ev):

   -44.1633 -44.1633 -22.2700 -22.2700 -22.1821 -22.1821 -22.1034 -22.1034
    -8.4696  -8.4696  -7.0642  -7.0642  -5.7539  -5.7539  -4.7314  -4.7314
    -4.0733  -4.0733   0.4719   0.4719   1.0346   1.0346   1.3755   1.3755
     1.4871   1.4871   2.4967   2.4967   2.8896   2.8896   3.6819   3.6819
     3.8695   3.8695   4.1657   4.1657   4.1702   4.1702   4.4851   4.4851
     4.7314   4.7314   5.8527   5.8527   6.1788   6.1788   6.6346   6.6346
     6.6382   6.6382

          k = 1.0162 0.0000 0.0000 ( 36499 PWs)   bands (ev):

   -44.1608 -44.1608 -22.2567 -22.2567 -22.2460 -22.2460 -22.0963 -22.0963
    -6.8103  -6.7882  -6.4821  -6.4790  -6.4624  -6.4502  -5.1170  -5.1166
    -4.4053  -4.3734  -0.2264  -0.1907   0.0821   0.1101   1.0003   1.0361
     1.4832   1.6289   2.1788   2.3644   2.3735   2.3923   2.7365   2.9030
     2.9086   2.9222   3.1233   3.2201   3.2801   3.2880   3.4604   3.5765
     4.0320   4.3410   6.7273   6.8263   6.9181   6.9975   7.2372   7.2490
     7.2551   7.2586

          k = 1.0162 0.0000 0.1485 ( 36485 PWs)   bands (ev):

   -44.1608 -44.1608 -22.2567 -22.2567 -22.2460 -22.2460 -22.0963 -22.0963
    -6.8030  -6.7867  -6.5209  -6.5143  -6.4258  -6.4208  -5.1158  -5.1155
    -4.4024  -4.3799  -0.3071  -0.2937   0.2537   0.2583   1.0048   1.0242
     1.4722   1.5690   2.1091   2.2276   2.3215   2.3865   2.6123   2.6655
     2.8936   3.0209   3.1456   3.2221   3.4715   3.4770   3.6238   3.6531
     4.1323   4.3500   6.4300   6.4742   6.6307   6.7190   7.2714   7.2733
     7.5244   7.5544

          k = 1.0162 0.0000-0.2971 ( 36514 PWs)   bands (ev):

   -44.1608 -44.1608 -22.2567 -22.2567 -22.2460 -22.2460 -22.0963 -22.0963
    -6.7902  -6.7902  -6.5387  -6.5387  -6.4067  -6.4067  -5.1145  -5.1145
    -4.3929  -4.3929  -0.3582  -0.3582   0.3994   0.3994   0.9923   0.9923
     1.4973   1.4973   2.0234   2.0234   2.3199   2.3199   2.7045   2.7045
     2.8194   2.8194   3.2185   3.2185   3.6093   3.6093   3.7453   3.7453
     4.3356   4.3356   6.1307   6.1307   6.5727   6.5727   7.2812   7.2812
     7.6504   7.6505

          k = 1.2703 0.0645 0.0000 ( 36468 PWs)   bands (ev):

   -44.1611 -44.1611 -22.2587 -22.2587 -22.2367 -22.2367 -22.0974 -22.0973
    -7.3989  -7.2685  -6.7952  -6.7040  -5.7659  -5.6425  -5.1609  -5.0952
    -4.4783  -4.4096  -0.3949  -0.0117   0.0372   0.8377   0.8862   1.2936
     1.5011   1.7225   2.1315   2.1366   2.2592   2.2754   2.4066   2.8939
     3.0498   3.1836   3.3566   3.3878   3.5114   3.5625   3.6504   3.6804
     4.1693   4.5465   6.3628   6.5976   6.6405   6.8587   7.0745   7.2046
     7.3740   7.5101

          k = 1.2703 0.0645 0.1485 ( 36490 PWs)   bands (ev):

   -44.1611 -44.1611 -22.2587 -22.2587 -22.2367 -22.2367 -22.0974 -22.0973
    -7.3825  -7.2911  -6.7794  -6.7156  -5.7440  -5.6563  -5.1556  -5.1101
    -4.4672  -4.4191  -0.3563  -0.0867   0.1489   0.7534   0.8788   1.2311
     1.5303   1.6212   2.0546   2.1229   2.2351   2.5304   2.6481   2.9597
     2.9752   3.0700   3.2412   3.2587   3.4798   3.5356   3.7851   3.8445
     4.1566   4.4865   6.1507   6.5696   6.7404   6.9575   7.0694   7.2270
     7.2726   7.5380

          k = 1.2703 0.0645-0.2971 ( 36480 PWs)   bands (ev):

   -44.1611 -44.1611 -22.2587 -22.2587 -22.2367 -22.2367 -22.0974 -22.0974
    -7.3397  -7.3397  -6.7456  -6.7456  -5.6961  -5.6961  -5.1377  -5.1377
    -4.4424  -4.4424  -0.2390  -0.2390   0.4335   0.4335   1.0382   1.0382
     1.5636   1.5636   2.0781   2.0781   2.4781   2.4781   2.8571   2.8571
     2.9882   2.9882   3.1548   3.1548   3.5760   3.5760   3.8884   3.8884
     4.2270   4.2270   6.4597   6.4597   6.5833   6.5833   7.1795   7.1795
     7.4940   7.4940

          k =-0.5081-0.3869 0.0000 ( 36463 PWs)   bands (ev):

   -44.1620 -44.1620 -22.2634 -22.2634 -22.2141 -22.2141 -22.0999 -22.0998
    -8.0119  -7.8822  -6.9294  -6.8336  -5.7752  -5.2155  -4.9778  -4.6113
    -4.5294  -4.5236  -0.2594   0.2906   0.7136   0.7514   1.1827   1.5437
     1.6583   1.7088   1.8082   2.0310   2.1529   2.5115   2.6206   3.2774
     3.4946   3.5181   3.5843   3.5958   3.7233   3.7963   4.0917   4.1797
     4.2636   4.8217   6.0006   6.1963   6.3824   6.8048   6.9433   6.9446
     7.3514   7.4226

          k =-0.5081-0.3869 0.1485 ( 36477 PWs)   bands (ev):

   -44.1620 -44.1620 -22.2634 -22.2634 -22.2141 -22.2141 -22.0999 -22.0998
    -7.9950  -7.9037  -6.9130  -6.8457  -5.7207  -5.3632  -4.8600  -4.6038
    -4.5837  -4.5002  -0.1938   0.2115   0.7136   0.8099   1.1318   1.2551
     1.6296   1.7296   1.9472   2.0271   2.3596   2.5641   2.8871   3.2004
     3.3714   3.5226   3.5372   3.6041   3.7311   3.7480   4.0723   4.1470
     4.2467   4.5246   6.2818   6.3829   6.4413   6.7945   6.8359   7.0010
     7.1794   7.4511

          k =-0.5081-0.3869-0.2971 ( 36492 PWs)   bands (ev):

   -44.1620 -44.1620 -22.2634 -22.2634 -22.2141 -22.2141 -22.0999 -22.0999
    -7.9516  -7.9516  -6.8773  -6.8773  -5.5699  -5.5699  -4.7163  -4.7163
    -4.5289  -4.5289  -0.0099  -0.0099   0.9016   0.9016   0.9701   0.9701
     1.6817   1.6817   1.9993   1.9993   2.7098   2.7098   3.0567   3.0567
     3.3522   3.3522   3.5873   3.5873   3.6843   3.6843   4.0476   4.0476
     4.3052   4.3052   6.4694   6.4694   6.7047   6.7047   6.8421   6.8421
     7.3328   7.3329

          k =-0.2541-0.3224 0.0000 ( 36485 PWs)   bands (ev):

   -44.1629 -44.1629 -22.2681 -22.2681 -22.1915 -22.1915 -22.1025 -22.1023
    -8.3989  -8.2653  -7.0707  -6.9540  -5.9379  -5.3469  -4.7522  -4.6448
    -4.6163  -3.9246   0.2542   0.5728   0.9661   1.0530   1.2030   1.3961
     1.4091   1.7007   1.7797   2.5200   2.5945   3.1678   3.4955   3.5857
     3.6326   3.6503   3.7906   3.9201   3.9636   4.1460   4.1808   4.3507
     4.4036   4.7593   6.0919   6.1621   6.1914   6.3281   6.4365   6.9143
     6.9598   7.1189

          k =-0.2541-0.3224 0.1485 ( 36445 PWs)   bands (ev):

   -44.1629 -44.1629 -22.2681 -22.2681 -22.1915 -22.1915 -22.1024 -22.1023
    -8.3814  -8.2873  -7.0503  -6.9683  -5.8790  -5.4856  -4.7348  -4.6538
    -4.4720  -4.0014   0.3232   0.5544   0.8254   1.0645   1.1873   1.2883
     1.4435   1.7481   2.0930   2.5225   2.5866   2.9523   3.4383   3.4736
     3.6321   3.6346   3.6863   3.9153   4.0088   4.1643   4.3573   4.3969
     4.5616   4.8378   5.9294   5.9577   6.1880   6.3202   6.3918   6.8144
     7.1693   7.1941

          k =-0.2541-0.3224-0.2971 ( 36442 PWs)   bands (ev):

   -44.1629 -44.1629 -22.2681 -22.2681 -22.1915 -22.1915 -22.1024 -22.1024
    -8.3366  -8.3366  -7.0063  -7.0063  -5.7129  -5.7129  -4.6943  -4.6943
    -4.2081  -4.2081   0.4753   0.4753   0.8120   0.8120   1.2583   1.2583
     1.6505   1.6505   2.4820   2.4820   2.6350   2.6350   3.3107   3.3107
     3.6247   3.6247   3.8267   3.8267   4.1281   4.1281   4.3807   4.3807
     4.9004   4.9004   5.7374   5.7374   6.2333   6.2333   6.5529   6.5529
     7.3129   7.3130

          k = 0.0000-0.2579 0.0000 ( 36445 PWs)   bands (ev):

   -44.1633 -44.1633 -22.2701 -22.2700 -22.1821 -22.1820 -22.1035 -22.1033
    -8.5311  -8.3953  -7.1318  -7.0044  -5.9915  -5.3955  -4.7839  -4.6889
    -4.5497  -3.7132   0.1806   0.8597   1.0131   1.1987   1.2493   1.4572
     1.5180   1.6281   2.2459   2.8680   2.9339   2.9397   3.1514   3.5951
     3.6646   3.7176   3.9822   3.9990   4.1616   4.3948   4.4277   4.5871
     4.7773   5.0431   5.6668   5.9191   5.9727   6.0671   6.2414   6.6432
     7.0701   7.1966

          k = 0.0000-0.2579 0.1485 ( 36452 PWs)   bands (ev):

   -44.1633 -44.1633 -22.2701 -22.2700 -22.1821 -22.1820 -22.1035 -22.1034
    -8.5133  -8.4177  -7.1093  -7.0198  -5.9329  -5.5352  -4.7689  -4.7006
    -4.3831  -3.8139   0.2643   0.8719   0.9864   1.0535   1.2241   1.4655
     1.5085   1.8487   2.0371   2.8789   2.9255   2.9641   3.2982   3.6196
     3.6942   3.7398   3.9268   4.0254   4.2259   4.3133   4.3883   4.6549
     4.7253   4.7641   5.8736   5.9150   5.9588   6.2358   6.3573   6.5284
     6.9029   6.9946

          k = 0.0000-0.2579-0.2971 ( 36454 PWs)   bands (ev):

   -44.1633 -44.1633 -22.2700 -22.2700 -22.1821 -22.1821 -22.1034 -22.1034
    -8.4678  -8.4678  -7.0610  -7.0610  -5.7659  -5.7659  -4.7344  -4.7344
    -4.0729  -4.0729   0.5066   0.5066   1.1128   1.1128   1.3868   1.3868
     1.4865   1.4865   2.5318   2.5318   2.9035   2.9035   3.5882   3.5882
     3.7847   3.7847   4.0601   4.0601   4.1467   4.1467   4.4082   4.4082
     4.7241   4.7241   5.9183   5.9183   6.2197   6.2197   6.5812   6.5812
     6.6483   6.6483

          k = 1.5243 0.0000 0.0000 ( 36439 PWs)   bands (ev):

   -44.1620 -44.1620 -22.2634 -22.2634 -22.2141 -22.2141 -22.0999 -22.0998
    -8.0107  -7.8819  -6.9299  -6.8331  -5.7781  -5.2164  -4.9799  -4.6136
    -4.5299  -4.5202  -0.2631   0.2974   0.7119   0.7421   1.1862   1.6108
     1.6731   1.7219   1.7919   2.0201   2.1817   2.4910   2.6129   3.2520
     3.4811   3.5379   3.5479   3.5971   3.7005   3.8019   4.0447   4.2124
     4.2579   4.8312   5.9966   6.1644   6.4141   6.8493   6.9077   7.0141
     7.3245   7.4429

          k = 1.5243 0.0000 0.1485 ( 36476 PWs)   bands (ev):

   -44.1620 -44.1620 -22.2634 -22.2634 -22.2141 -22.2141 -22.0999 -22.0998
    -7.9939  -7.9032  -6.9135  -6.8455  -5.7231  -5.3642  -4.8626  -4.6041
    -4.5849  -4.4976  -0.1967   0.2157   0.7105   0.8052   1.1321   1.2640
     1.7183   1.7442   1.9216   2.0023   2.4131   2.5294   2.8768   3.1883
     3.3362   3.5319   3.5359   3.5823   3.7294   3.7333   4.0638   4.1556
     4.2300   4.5375   6.2546   6.4008   6.4405   6.7985   6.8393   7.0788
     7.1369   7.4695

          k = 1.5243 0.0000-0.2971 ( 36508 PWs)   bands (ev):

   -44.1620 -44.1620 -22.2634 -22.2634 -22.2141 -22.2141 -22.0999 -22.0999
    -7.9507  -7.9507  -6.8775  -6.8775  -5.5715  -5.5715  -4.7187  -4.7187
    -4.5273  -4.5273  -0.0103  -0.0103   0.9048   0.9048   0.9661   0.9661
     1.7426   1.7426   1.9688   1.9688   2.7453   2.7453   3.0022   3.0022
     3.3517   3.3517   3.5792   3.5792   3.6744   3.6744   4.0528   4.0528
     4.3003   4.3003   6.4573   6.4573   6.7098   6.7098   6.8455   6.8455
     7.3511   7.3511

          k =-0.2541-0.4514 0.0000 ( 36444 PWs)   bands (ev):

   -44.1629 -44.1629 -22.2681 -22.2681 -22.1915 -22.1915 -22.1025 -22.1023
    -8.3968  -8.2648  -7.0686  -6.9516  -5.9490  -5.3519  -4.7647  -4.6321
    -4.6193  -3.9252   0.2679   0.5674   0.9717   1.0630   1.3090   1.4200
     1.4237   1.7815   1.8102   2.4546   2.5248   3.2350   3.4389   3.4698
     3.5512   3.6226   3.8631   3.9180   3.9669   4.0529   4.1077   4.2776
     4.3882   4.7975   6.1262   6.1693   6.2442   6.3919   6.4620   6.8838
     6.9594   7.0738

          k =-0.2541-0.4514 0.1485 ( 36461 PWs)   bands (ev):

   -44.1629 -44.1629 -22.2681 -22.2681 -22.1915 -22.1915 -22.1024 -22.1023
    -8.3795  -8.2865  -7.0485  -6.9663  -5.8889  -5.4909  -4.7441  -4.6496
    -4.4705  -4.0015   0.3380   0.5524   0.8251   1.0863   1.2459   1.3549
     1.4799   1.7758   2.1560   2.4601   2.5129   2.9963   3.3719   3.4139
     3.5186   3.5842   3.7665   3.9126   3.9890   4.0572   4.3094   4.3753
     4.5491   4.8685   5.9373   5.9508   6.2249   6.3553   6.4558   6.7584
     7.1790   7.1871

          k =-0.2541-0.4514-0.2971 ( 36490 PWs)   bands (ev):

   -44.1629 -44.1629 -22.2681 -22.2681 -22.1915 -22.1915 -22.1024 -22.1024
    -8.3352  -8.3352  -7.0048  -7.0048  -5.7202  -5.7202  -4.6970  -4.6970
    -4.2072  -4.2072   0.4856   0.4856   0.8175   0.8175   1.3303   1.3303
     1.6782   1.6782   2.4709   2.4709   2.6267   2.6267   3.2835   3.2835
     3.4952   3.4952   3.8959   3.8959   4.0537   4.0537   4.3455   4.3455
     4.9136   4.9136   5.7308   5.7308   6.2461   6.2461   6.5726   6.5726
     7.3120   7.3120

          k = 0.0000-0.3869 0.0000 ( 36477 PWs)   bands (ev):

   -44.1633 -44.1633 -22.2701 -22.2700 -22.1821 -22.1820 -22.1035 -22.1033
    -8.5285  -8.3947  -7.1274  -7.0009  -6.0089  -5.4039  -4.7985  -4.6771
    -4.5511  -3.7137   0.2004   0.8682   1.1555   1.2222   1.3151   1.4565
     1.5173   1.7036   2.2381   2.8868   2.9437   2.9535   3.1521   3.3374
     3.4511   3.7467   3.9534   4.0230   4.0296   4.2340   4.4286   4.5535
     4.7737   5.0252   5.7081   5.9783   6.0281   6.1537   6.2620   6.6795
     6.9168   7.1966

          k = 0.0000-0.3869 0.1485 ( 36452 PWs)   bands (ev):

   -44.1633 -44.1633 -22.2701 -22.2700 -22.1821 -22.1820 -22.1035 -22.1034
    -8.5110  -8.4167  -7.1054  -7.0165  -5.9486  -5.5442  -4.7805  -4.6942
    -4.3828  -3.8140   0.2859   0.9025   1.0000   1.1938   1.2948   1.4649
     1.5078   1.8608   2.0866   2.8965   2.9366   2.9854   3.2353   3.3478
     3.4698   3.8236   3.9583   3.9976   4.1146   4.2343   4.2971   4.6394
     4.7218   4.7599   5.9300   5.9599   6.0067   6.2558   6.3745   6.5597
     6.7761   6.9981

          k = 0.0000-0.3869-0.2971 ( 36454 PWs)   bands (ev):

   -44.1633 -44.1633 -22.2700 -22.2700 -22.1821 -22.1821 -22.1034 -22.1034
    -8.4660  -8.4660  -7.0579  -7.0579  -5.7778  -5.7778  -4.7375  -4.7375
    -4.0724  -4.0724   0.5334   0.5334   1.2136   1.2136   1.4048   1.4048
     1.4858   1.4858   2.5738   2.5738   2.9179   2.9179   3.3115   3.3115
     3.8281   3.8281   4.0227   4.0227   4.1224   4.1224   4.3277   4.3277
     4.7173   4.7173   5.9567   5.9567   6.2672   6.2672   6.5108   6.5108
     6.6585   6.6585

          k =-2.0325 0.0000 0.0000 ( 36452 PWs)   bands (ev):

   -44.1633 -44.1633 -22.2701 -22.2700 -22.1821 -22.1820 -22.1035 -22.1033
    -8.5274  -8.3944  -7.1257  -6.9991  -6.0162  -5.4073  -4.8041  -4.6723
    -4.5521  -3.7139   0.2064   0.8724   1.2312   1.2738   1.2917   1.4562
     1.5171   1.7476   2.2356   2.8951   2.9475   2.9623   3.1177   3.2270
     3.3444   3.8962   3.9164   3.9413   4.0320   4.1381   4.4290   4.5396
     4.7722   5.0186   5.7251   5.9977   6.0453   6.1996   6.2706   6.6925
     6.8443   7.1966

          k =-2.0325 0.0000 0.1485 ( 36456 PWs)   bands (ev):

   -44.1633 -44.1633 -22.2701 -22.2700 -22.1821 -22.1820 -22.1035 -22.1034
    -8.5100  -8.4163  -7.1039  -7.0150  -5.9551  -5.5479  -4.7850  -4.6919
    -4.3828  -3.8141   0.2926   0.9151   1.0049   1.2877   1.3060   1.4646
     1.5076   1.8657   2.1138   2.9042   2.9411   2.9923   3.1417   3.2520
     3.4041   3.9230   3.9655   3.9859   4.0740   4.1254   4.2899   4.6335
     4.7206   4.7583   5.9563   5.9746   6.0197   6.2678   6.3818   6.5682
     6.7188   6.9996

          k =-2.0325 0.0000-0.2971 ( 36460 PWs)   bands (ev):

   -44.1633 -44.1633 -22.2700 -22.2700 -22.1821 -22.1821 -22.1034 -22.1034
    -8.4653  -8.4653  -7.0566  -7.0566  -5.7828  -5.7828  -4.7387  -4.7387
    -4.0722  -4.0722   0.5422   0.5422   1.2614   1.2614   1.4175   1.4175
     1.4855   1.4855   2.5960   2.5960   2.9240   2.9240   3.1805   3.1805
     3.8543   3.8543   4.0108   4.0108   4.1121   4.1121   4.2931   4.2931
     4.7146   4.7146   5.9681   5.9681   6.2920   6.2920   6.4736   6.4736
     6.6629   6.6629

     the Fermi energy is     5.4439 ev

!    total energy              =   -4240.90615578 Ry

     total all-electron energy =   -150287.599850 Ry
     estimated scf accuracy    <          7.7E-11 Ry
     smearing contrib. (-TS)   =       0.00000000 Ry
     internal energy E=F+TS    =   -4240.90615578 Ry

     The total energy is F=E-TS. E is the sum of the following terms:
     one-electron contribution =    -169.41842671 Ry
     hartree contribution      =     118.14169049 Ry
     xc contribution           =    -201.68391230 Ry
     ewald contribution        =    -220.39093235 Ry
     one-center paw contrib.   =   -3767.55457490 Ry

     convergence has been achieved in  14 iterations

     Forces acting on atoms (cartesian axes, Ry/au):

     atom    1 type  1   force =     0.00000000    0.02631698    0.00000000
     atom    2 type  1   force =    -0.00000000   -0.02631698    0.00000000
     atom    3 type  2   force =     0.00000000   -0.00043845    0.00000000
     atom    4 type  2   force =     0.00000000    0.00043845    0.00000000
     atom    5 type  2   force =     0.00000000   -0.00616002   -0.00460859
     atom    6 type  2   force =     0.00000000    0.00616002    0.00460859
     atom    7 type  2   force =     0.00000000   -0.00616002    0.00460859
     atom    8 type  2   force =     0.00000000    0.00616002   -0.00460859
     atom    9 type  2   force =     0.00000000   -0.05197878   -0.06335288
     atom   10 type  2   force =     0.00000000    0.05197878    0.06335288
     atom   11 type  2   force =     0.00000000   -0.05197878    0.06335288
     atom   12 type  2   force =     0.00000000    0.05197878   -0.06335288

     Total force =     0.168771     Total SCF correction =     0.000012


     Computing stress (Cartesian axis) and pressure

          total   stress  (Ry/bohr**3)                   (kbar)     P=       15.25
   0.00013308   0.00000000   0.00000000           19.58        0.00        0.00
   0.00000000   0.00004811   0.00000000            0.00        7.08        0.00
   0.00000000   0.00000000   0.00012987            0.00        0.00       19.10

 
     init_run     :     20.20s CPU     20.73s WALL (       1 calls)
     electrons    :    816.17s CPU    826.08s WALL (       1 calls)
     forces       :      6.96s CPU      7.22s WALL (       1 calls)
     stress       :     44.56s CPU     45.22s WALL (       1 calls)

     Called by init_run:
     wfcinit      :     15.59s CPU     15.81s WALL (       1 calls)
     potinit      :      1.43s CPU      1.49s WALL (       1 calls)
     hinit0       :      1.70s CPU      1.74s WALL (       1 calls)

     Called by electrons:
     c_bands      :    675.84s CPU    679.33s WALL (      15 calls)
     sum_band     :    118.67s CPU    122.20s WALL (      15 calls)
     v_of_rho     :      4.77s CPU      5.02s WALL (      15 calls)
     newd         :     12.35s CPU     15.16s WALL (      15 calls)
     PAW_pot      :      4.91s CPU      4.91s WALL (      15 calls)
     mix_rho      :      0.68s CPU      0.70s WALL (      15 calls)

     Called by c_bands:
     init_us_2    :     10.13s CPU     10.18s WALL (    2079 calls)
     cegterg      :    613.86s CPU    616.81s WALL (     945 calls)

     Called by *egterg:
     cdiaghg      :     22.94s CPU     23.02s WALL (    6661 calls)
     h_psi        :    473.66s CPU    476.44s WALL (    6787 calls)
     s_psi        :     38.03s CPU     38.12s WALL (    6787 calls)
     g_psi        :      1.68s CPU      1.70s WALL (    5779 calls)

     Called by h_psi:
     h_psi:calbec :     33.06s CPU     33.14s WALL (    6787 calls)
     vloc_psi     :    400.00s CPU    402.50s WALL (    6787 calls)
     add_vuspsi   :     37.90s CPU     37.98s WALL (    6787 calls)

     General routines
     calbec       :     44.04s CPU     44.17s WALL (    8047 calls)
     fft          :      2.96s CPU      3.06s WALL (     219 calls)
     ffts         :      0.08s CPU      0.08s WALL (      30 calls)
     fftw         :    364.25s CPU    366.49s WALL (  350430 calls)
     interpolate  :      0.27s CPU      0.27s WALL (      15 calls)
 
     Parallel routines
 
     PWSCF        :  14m48.14s CPU  14m59.60s WALL

 
   This run was terminated on:  15:31:33  19Nov2021            

=------------------------------------------------------------------------------=
   JOB DONE.
=------------------------------------------------------------------------------=
