
     Program PWSCF v.6.8 starts on 19Nov2021 at 15:16:38 

     This program is part of the open-source Quantum ESPRESSO suite
     for quantum simulation of materials; please cite
         "P. Giannozzi et al., J. Phys.:Condens. Matter 21 395502 (2009);
         "P. Giannozzi et al., J. Phys.:Condens. Matter 29 465901 (2017);
         "P. Giannozzi et al., J. Chem. Phys. 152 154105 (2020);
          URL http://www.quantum-espresso.org", 
     in publications or presentations arising from this work. More details at
     http://www.quantum-espresso.org/quote

     Parallel version (MPI), running on    10 processors

     MPI processes distributed on     1 nodes
     R & G space division:  proc/nbgrp/npool/nimage =      10
     71012 MiB available memory on the printing compute node when the environment starts
 
     Waiting for input...
     Reading input from standard input

     Current dimensions of program PWSCF are:
     Max number of different atomic species (ntypx) = 10
     Max number of k-points (npk) =  40000
     Max angular momentum in pseudopotentials (lmaxx) =  4
     file Zr.pbe-spn-kjpaw_psl.1.0.0.UPF: wavefunction(s)  4S 4P renormalized
     file Te.pbe-n-kjpaw_psl.1.0.0.UPF: wavefunction(s)  5S 5P renormalized
     Message from routine setup:
     using ibrav=0 with symmetry is DISCOURAGED, use correct ibrav instead

     Subspace diagonalization in iterative solution of the eigenvalue problem:
     a serial algorithm will be used

 
     Parallelization info
     --------------------
     sticks:   dense  smooth     PW     G-vecs:    dense   smooth      PW
     Min         734     293     87               115340    29174    4753
     Max         735     295     88               115345    29176    4760
     Sum        7345    2937    873              1153415   291749   47557
 
     Using Slab Decomposition
 


     bravais-lattice index     =            0
     lattice parameter (alat)  =      15.5510  a.u.
     unit-cell volume          =    3018.5011 (a.u.)^3
     number of atoms/cell      =           12
     number of atomic types    =            2
     number of electrons       =        84.00
     number of Kohn-Sham states=           50
     kinetic-energy cutoff     =      80.0000  Ry
     charge density cutoff     =     800.0000  Ry
     scf convergence threshold =      1.0E-10
     mixing beta               =       0.7000
     number of iterations used =            8  plain     mixing
     Exchange-correlation= SLA  PW   PBX  PBC
                           (   1   4   3   4   0   0   0)

     celldm(1)=  15.551040  celldm(2)=   0.000000  celldm(3)=   0.000000
     celldm(4)=   0.000000  celldm(5)=   0.000000  celldm(6)=   0.000000

     crystal axes: (cart. coord. in units of alat)
               a(1) = (   0.246007  -0.969268   0.000000 )  
               a(2) = (   0.246007   0.969268   0.000000 )  
               a(3) = (   0.000000   0.000000   1.683031 )  

     reciprocal axes: (cart. coord. in units 2 pi/alat)
               b(1) = (  2.032465 -0.515853  0.000000 )  
               b(2) = (  2.032465  0.515853  0.000000 )  
               b(3) = (  0.000000  0.000000  0.594166 )  


     PseudoPot. # 1 for Zr read from file:
     pseudo/Zr.pbe-spn-kjpaw_psl.1.0.0.UPF
     MD5 check sum: 02112c41713a0468aff2bb39ef194e36
     Pseudo is Projector augmented-wave + core cor, Zval = 12.0
     Generated using &quot;atomic&quot; code by A. Dal Corso  v.6.2.2
     Shape of augmentation charge: PSQ
     Using radial grid of 1225 points,  6 beta functions with: 
                l(1) =   0
                l(2) =   0
                l(3) =   1
                l(4) =   1
                l(5) =   2
                l(6) =   2
     Q(r) pseudized with 0 coefficients 


     PseudoPot. # 2 for Te read from file:
     pseudo/Te.pbe-n-kjpaw_psl.1.0.0.UPF
     MD5 check sum: 66247bff2bd9dbf220fbb0bf5ab56e9d
     Pseudo is Projector augmented-wave + core cor, Zval =  6.0
     Generated using &quot;atomic&quot; code by A. Dal Corso  v.6.3
     Shape of augmentation charge: PSQ
     Using radial grid of 1245 points,  6 beta functions with: 
                l(1) =   0
                l(2) =   0
                l(3) =   1
                l(4) =   1
                l(5) =   2
                l(6) =   2
     Q(r) pseudized with 0 coefficients 


     atomic species   valence    mass     pseudopotential
        Zr            12.00    91.22000     Zr( 1.00)
        Te             6.00   127.60000     Te( 1.00)

      8 Sym. Ops., with inversion, found ( 4 have fractional translation)



   Cartesian axes

     site n.     atom                  positions (alat units)
         1           Zr  tau(   1) = (   0.0000000   0.5973480   0.4207578  )
         2           Zr  tau(   2) = (   0.2460067   0.3719202   1.2622733  )
         3           Te  tau(   3) = (   0.2460067   0.3340824   0.4207578  )
         4           Te  tau(   4) = (   0.0000000   0.6351857   1.2622733  )
         5           Te  tau(   5) = (   0.2460067   0.8135855   0.2546297  )
         6           Te  tau(   6) = (   0.0000000   0.1556826   1.4284013  )
         7           Te  tau(   7) = (   0.2460067   0.8135855   0.5868858  )
         8           Te  tau(   8) = (   0.0000000   0.1556826   1.0961453  )
         9           Te  tau(   9) = (   0.0000000   0.4293612   0.7446872  )
        10           Te  tau(  10) = (   0.2460067   0.5399069   0.9383439  )
        11           Te  tau(  11) = (   0.0000000   0.4293612   0.0968284  )
        12           Te  tau(  12) = (   0.2460067   0.5399069   1.5862027  )

     number of k points=    63  Methfessel-Paxton smearing, width (Ry)=  0.0030
                       cart. coord. in units 2pi/alat
        k(    1) = (   0.0000000   0.0000000   0.0000000), wk =   0.0078125
        k(    2) = (   0.0000000   0.0000000   0.1485415), wk =   0.0156250
        k(    3) = (   0.0000000   0.0000000  -0.2970830), wk =   0.0078125
        k(    4) = (   0.2540581   0.0644816   0.0000000), wk =   0.0312500
        k(    5) = (   0.2540581   0.0644816   0.1485415), wk =   0.0625000
        k(    6) = (   0.2540581   0.0644816  -0.2970830), wk =   0.0312500
        k(    7) = (   0.5081162   0.1289633   0.0000000), wk =   0.0312500
        k(    8) = (   0.5081162   0.1289633   0.1485415), wk =   0.0625000
        k(    9) = (   0.5081162   0.1289633  -0.2970830), wk =   0.0312500
        k(   10) = (   0.7621743   0.1934449   0.0000000), wk =   0.0312500
        k(   11) = (   0.7621743   0.1934449   0.1485415), wk =   0.0625000
        k(   12) = (   0.7621743   0.1934449  -0.2970830), wk =   0.0312500
        k(   13) = (  -1.0162324  -0.2579266   0.0000000), wk =   0.0156250
        k(   14) = (  -1.0162324  -0.2579266   0.1485415), wk =   0.0312500
        k(   15) = (  -1.0162324  -0.2579266  -0.2970830), wk =   0.0156250
        k(   16) = (   0.5081162   0.0000000   0.0000000), wk =   0.0156250
        k(   17) = (   0.5081162   0.0000000   0.1485415), wk =   0.0312500
        k(   18) = (   0.5081162   0.0000000  -0.2970830), wk =   0.0156250
        k(   19) = (   0.7621743   0.0644816   0.0000000), wk =   0.0312500
        k(   20) = (   0.7621743   0.0644816   0.1485415), wk =   0.0625000
        k(   21) = (   0.7621743   0.0644816  -0.2970830), wk =   0.0312500
        k(   22) = (   1.0162324   0.1289633   0.0000000), wk =   0.0312500
        k(   23) = (   1.0162324   0.1289633   0.1485415), wk =   0.0625000
        k(   24) = (   1.0162324   0.1289633  -0.2970830), wk =   0.0312500
        k(   25) = (  -0.7621743  -0.3224082   0.0000000), wk =   0.0312500
        k(   26) = (  -0.7621743  -0.3224082   0.1485415), wk =   0.0625000
        k(   27) = (  -0.7621743  -0.3224082  -0.2970830), wk =   0.0312500
        k(   28) = (  -0.5081162  -0.2579266   0.0000000), wk =   0.0312500
        k(   29) = (  -0.5081162  -0.2579266   0.1485415), wk =   0.0625000
        k(   30) = (  -0.5081162  -0.2579266  -0.2970830), wk =   0.0312500
        k(   31) = (  -0.2540581  -0.1934449   0.0000000), wk =   0.0312500
        k(   32) = (  -0.2540581  -0.1934449   0.1485415), wk =   0.0625000
        k(   33) = (  -0.2540581  -0.1934449  -0.2970830), wk =   0.0312500
        k(   34) = (   0.0000000  -0.1289633   0.0000000), wk =   0.0156250
        k(   35) = (   0.0000000  -0.1289633   0.1485415), wk =   0.0312500
        k(   36) = (   0.0000000  -0.1289633  -0.2970830), wk =   0.0156250
        k(   37) = (   1.0162324   0.0000000   0.0000000), wk =   0.0156250
        k(   38) = (   1.0162324   0.0000000   0.1485415), wk =   0.0312500
        k(   39) = (   1.0162324   0.0000000  -0.2970830), wk =   0.0156250
        k(   40) = (   1.2702905   0.0644816   0.0000000), wk =   0.0312500
        k(   41) = (   1.2702905   0.0644816   0.1485415), wk =   0.0625000
        k(   42) = (   1.2702905   0.0644816  -0.2970830), wk =   0.0312500
        k(   43) = (  -0.5081162  -0.3868899   0.0000000), wk =   0.0312500
        k(   44) = (  -0.5081162  -0.3868899   0.1485415), wk =   0.0625000
        k(   45) = (  -0.5081162  -0.3868899  -0.2970830), wk =   0.0312500
        k(   46) = (  -0.2540581  -0.3224082   0.0000000), wk =   0.0312500
        k(   47) = (  -0.2540581  -0.3224082   0.1485415), wk =   0.0625000
        k(   48) = (  -0.2540581  -0.3224082  -0.2970830), wk =   0.0312500
        k(   49) = (   0.0000000  -0.2579266   0.0000000), wk =   0.0156250
        k(   50) = (   0.0000000  -0.2579266   0.1485415), wk =   0.0312500
        k(   51) = (   0.0000000  -0.2579266  -0.2970830), wk =   0.0156250
        k(   52) = (   1.5243485   0.0000000   0.0000000), wk =   0.0156250
        k(   53) = (   1.5243485   0.0000000   0.1485415), wk =   0.0312500
        k(   54) = (   1.5243485   0.0000000  -0.2970830), wk =   0.0156250
        k(   55) = (  -0.2540581  -0.4513715   0.0000000), wk =   0.0312500
        k(   56) = (  -0.2540581  -0.4513715   0.1485415), wk =   0.0625000
        k(   57) = (  -0.2540581  -0.4513715  -0.2970830), wk =   0.0312500
        k(   58) = (   0.0000000  -0.3868899   0.0000000), wk =   0.0156250
        k(   59) = (   0.0000000  -0.3868899   0.1485415), wk =   0.0312500
        k(   60) = (   0.0000000  -0.3868899  -0.2970830), wk =   0.0156250
        k(   61) = (  -2.0324647   0.0000000   0.0000000), wk =   0.0078125
        k(   62) = (  -2.0324647   0.0000000   0.1485415), wk =   0.0156250
        k(   63) = (  -2.0324647   0.0000000  -0.2970830), wk =   0.0078125

     Dense  grid:  1153415 G-vectors     FFT dimensions: ( 144, 144, 240)

     Smooth grid:   291749 G-vectors     FFT dimensions: (  90,  90, 150)

     Estimated max dynamical RAM per process >     657.19 MB

     Estimated total dynamical RAM >       6.42 GB

     Initial potential from superposition of free atoms

     starting charge   83.99353, renormalised to   84.00000
     Starting wfcs are   66 randomized atomic wfcs
     Checking if some PAW data can be deallocated... 

     total cpu time spent up to now is       20.3 secs

     Self-consistent Calculation

     iteration #  1     ecut=    80.00 Ry     beta= 0.70
     Davidson diagonalization with overlap
     ethr =  1.00E-02,  avg # of iterations =  2.2

     Threshold (ethr) on eigenvalues was too large:
     Diagonalizing with lowered threshold

     Davidson diagonalization with overlap
     ethr =  4.96E-04,  avg # of iterations =  4.0

     total cpu time spent up to now is      104.2 secs

     total energy              =   -4240.66346015 Ry
     estimated scf accuracy    <       0.46371641 Ry

     iteration #  2     ecut=    80.00 Ry     beta= 0.70
     Davidson diagonalization with overlap
     ethr =  5.52E-04,  avg # of iterations =  8.2

     total cpu time spent up to now is      167.9 secs

     total energy              =   -4240.54781766 Ry
     estimated scf accuracy    <       2.09319865 Ry

     iteration #  3     ecut=    80.00 Ry     beta= 0.70
     Davidson diagonalization with overlap
     ethr =  5.52E-04,  avg # of iterations =  5.3

     total cpu time spent up to now is      219.5 secs

     total energy              =   -4240.88909868 Ry
     estimated scf accuracy    <       0.00795981 Ry

     iteration #  4     ecut=    80.00 Ry     beta= 0.70
     Davidson diagonalization with overlap
     c_bands:  1 eigenvalues not converged
     c_bands:  1 eigenvalues not converged
     c_bands:  1 eigenvalues not converged
     c_bands:  2 eigenvalues not converged
     c_bands:  1 eigenvalues not converged
     c_bands:  1 eigenvalues not converged
     c_bands:  3 eigenvalues not converged
     c_bands:  1 eigenvalues not converged
     c_bands:  2 eigenvalues not converged
     c_bands:  2 eigenvalues not converged
     c_bands:  1 eigenvalues not converged
     c_bands:  1 eigenvalues not converged
     c_bands:  1 eigenvalues not converged
     c_bands:  1 eigenvalues not converged
     ethr =  9.48E-06,  avg # of iterations = 16.6

     total cpu time spent up to now is      317.3 secs

     total energy              =   -4240.89802880 Ry
     estimated scf accuracy    <       0.03522539 Ry

     iteration #  5     ecut=    80.00 Ry     beta= 0.70
     Davidson diagonalization with overlap
     ethr =  9.48E-06,  avg # of iterations =  6.7

     total cpu time spent up to now is      368.8 secs

     total energy              =   -4240.89987678 Ry
     estimated scf accuracy    <       0.00586082 Ry

     iteration #  6     ecut=    80.00 Ry     beta= 0.70
     Davidson diagonalization with overlap
     ethr =  6.98E-06,  avg # of iterations =  3.4

     total cpu time spent up to now is      409.9 secs

     total energy              =   -4240.90033781 Ry
     estimated scf accuracy    <       0.00106112 Ry

     iteration #  7     ecut=    80.00 Ry     beta= 0.70
     Davidson diagonalization with overlap
     ethr =  1.26E-06,  avg # of iterations =  7.8

     total cpu time spent up to now is      470.6 secs

     total energy              =   -4240.90077537 Ry
     estimated scf accuracy    <       0.00067590 Ry

     iteration #  8     ecut=    80.00 Ry     beta= 0.70
     Davidson diagonalization with overlap
     ethr =  8.05E-07,  avg # of iterations =  2.0

     total cpu time spent up to now is      507.5 secs

     total energy              =   -4240.90079861 Ry
     estimated scf accuracy    <       0.00010061 Ry

     iteration #  9     ecut=    80.00 Ry     beta= 0.70
     Davidson diagonalization with overlap
     ethr =  1.20E-07,  avg # of iterations =  6.1

     total cpu time spent up to now is      557.2 secs

     total energy              =   -4240.90082929 Ry
     estimated scf accuracy    <       0.00000685 Ry

     iteration # 10     ecut=    80.00 Ry     beta= 0.70
     Davidson diagonalization with overlap
     ethr =  8.16E-09,  avg # of iterations =  5.6

     total cpu time spent up to now is      606.0 secs

     total energy              =   -4240.90083190 Ry
     estimated scf accuracy    <       0.00000048 Ry

     iteration # 11     ecut=    80.00 Ry     beta= 0.70
     Davidson diagonalization with overlap
     ethr =  5.75E-10,  avg # of iterations =  6.3

     total cpu time spent up to now is      659.7 secs

     total energy              =   -4240.90083222 Ry
     estimated scf accuracy    <       0.00000003 Ry

     iteration # 12     ecut=    80.00 Ry     beta= 0.70
     Davidson diagonalization with overlap
     ethr =  3.04E-11,  avg # of iterations =  6.7

     total cpu time spent up to now is      714.8 secs

     total energy              =   -4240.90083224 Ry
     estimated scf accuracy    <          1.5E-09 Ry

     iteration # 13     ecut=    80.00 Ry     beta= 0.70
     Davidson diagonalization with overlap
     ethr =  1.78E-12,  avg # of iterations =  6.2

     total cpu time spent up to now is      767.6 secs

     total energy              =   -4240.90083224 Ry
     estimated scf accuracy    <          1.4E-09 Ry

     iteration # 14     ecut=    80.00 Ry     beta= 0.70
     Davidson diagonalization with overlap
     ethr =  1.72E-12,  avg # of iterations =  2.2

     total cpu time spent up to now is      806.5 secs

     total energy              =   -4240.90083224 Ry
     estimated scf accuracy    <          1.3E-10 Ry

     iteration # 15     ecut=    80.00 Ry     beta= 0.70
     Davidson diagonalization with overlap
     ethr =  1.56E-13,  avg # of iterations =  8.2

     total cpu time spent up to now is      867.6 secs

     End of self-consistent calculation

          k = 0.0000 0.0000 0.0000 ( 36359 PWs)   bands (ev):

   -44.1654 -44.1654 -22.2713 -22.2713 -22.1834 -22.1834 -22.1062 -22.1060
    -8.5773  -8.4450  -7.1400  -7.0137  -5.9521  -5.3804  -4.7536  -4.7050
    -4.5285  -3.7041   0.1291   0.8610   0.8693   1.1432   1.1849   1.4048
     1.4606   1.5182   2.2607   2.8477   2.9206   2.9283   3.1321   3.4582
     3.9592   4.0316   4.1428   4.1621   4.3364   4.4350   4.5751   4.6285
     4.7888   5.0477   5.6062   5.7765   5.8254   5.9793   6.2326   6.5609
     7.2108   7.2524

          k = 0.0000 0.0000 0.1485 ( 36415 PWs)   bands (ev):

   -44.1654 -44.1654 -22.2713 -22.2713 -22.1834 -22.1834 -22.1062 -22.1061
    -8.5600  -8.4667  -7.1176  -7.0288  -5.8965  -5.5150  -4.7425  -4.7111
    -4.3665  -3.8043   0.2099   0.7997   0.9218   0.9879   1.1449   1.4125
     1.4519   1.8248   1.9794   2.8595   2.9109   2.9306   3.3282   3.5338
     3.8722   4.0725   4.1245   4.1622   4.3395   4.4062   4.5395   4.6785
     4.7296   4.7756   5.7750   5.8219   5.8229   6.2085   6.3510   6.4507
     7.0014   7.0526

          k = 0.0000 0.0000-0.2971 ( 36410 PWs)   bands (ev):

   -44.1654 -44.1654 -22.2713 -22.2713 -22.1834 -22.1834 -22.1061 -22.1061
    -8.5155  -8.5155  -7.0695  -7.0695  -5.7370  -5.7370  -4.7259  -4.7259
    -4.0612  -4.0612   0.4444   0.4444   1.0117   1.0117   1.3768   1.3768
     1.4317   1.4317   2.4739   2.4739   2.8862   2.8862   3.6762   3.6762
     3.9118   3.9118   4.1866   4.1866   4.2577   4.2577   4.5254   4.5254
     4.7379   4.7379   5.8048   5.8048   6.1514   6.1514   6.6419   6.6419
     6.6474   6.6474

          k = 0.2541 0.0645 0.0000 ( 36396 PWs)   bands (ev):

   -44.1651 -44.1650 -22.2694 -22.2693 -22.1929 -22.1928 -22.1052 -22.1050
    -8.4457  -8.3145  -7.0784  -6.9635  -5.8967  -5.3318  -4.7094  -4.6595
    -4.6122  -3.9192   0.1937   0.5429   0.9617   0.9877   1.0469   1.3162
     1.3300   1.5648   1.7485   2.6137   2.6515   3.1184   3.3790   3.6823
     3.7625   3.8225   3.9249   3.9720   4.1157   4.3126   4.3345   4.4586
     4.5384   4.6679   5.9872   6.0187   6.1139   6.2000   6.3505   6.8095
     7.0801   7.2695

          k = 0.2541 0.0645 0.1485 ( 36423 PWs)   bands (ev):

   -44.1651 -44.1650 -22.2694 -22.2693 -22.1929 -22.1929 -22.1051 -22.1050
    -8.4284  -8.3360  -7.0579  -6.9772  -5.8412  -5.4654  -4.7013  -4.6657
    -4.4638  -3.9961   0.2609   0.5212   0.8047   0.9881   1.0336   1.2052
     1.3695   1.7152   1.9873   2.6171   2.6362   2.9066   3.4479   3.4912
     3.5216   3.8994   3.9948   4.0794   4.0943   4.2697   4.4635   4.5377
     4.6027   4.7566   5.9028   5.9595   6.1033   6.1686   6.2062   6.8759
     7.2038   7.2258

          k = 0.2541 0.0645-0.2971 ( 36436 PWs)   bands (ev):

   -44.1651 -44.1651 -22.2694 -22.2694 -22.1929 -22.1929 -22.1051 -22.1051
    -8.3844  -8.3844  -7.0142  -7.0142  -5.6835  -5.6835  -4.6834  -4.6834
    -4.2021  -4.2021   0.4215   0.4215   0.7658   0.7658   1.1296   1.1296
     1.6043   1.6043   2.4640   2.4640   2.6457   2.6457   3.3255   3.3255
     3.7227   3.7227   4.0530   4.0530   4.2146   4.2146   4.5076   4.5076
     4.8569   4.8569   5.7573   5.7573   6.1094   6.1094   6.5199   6.5199
     7.3299   7.3299

          k = 0.5081 0.1290 0.0000 ( 36499 PWs)   bands (ev):

   -44.1642 -44.1642 -22.2647 -22.2647 -22.2155 -22.2155 -22.1026 -22.1025
    -8.0573  -7.9291  -6.9304  -6.8405  -5.7491  -5.2077  -4.9653  -4.5892
    -4.5422  -4.5334  -0.2757   0.2260   0.7345   0.7709   1.1686   1.3269
     1.6299   1.6398   1.7282   2.0664   2.1345   2.5036   2.6620   3.4080
     3.4583   3.5474   3.6107   3.7550   3.7784   3.8591   4.0472   4.2857
     4.2877   4.7564   6.0484   6.2469   6.3564   6.6153   6.6817   7.1336
     7.3790   7.5318

          k = 0.5081 0.1290 0.1485 ( 36476 PWs)   bands (ev):

   -44.1642 -44.1642 -22.2647 -22.2647 -22.2155 -22.2155 -22.1026 -22.1025
    -8.0406  -7.9502  -6.9144  -6.8514  -5.6972  -5.3519  -4.8470  -4.6037
    -4.5708  -4.5156  -0.2137   0.1564   0.7240   0.8283   1.1388   1.1989
     1.4104   1.5985   1.9982   2.0870   2.2558   2.5619   2.9192   3.2924
     3.4541   3.5023   3.5649   3.7359   3.8022   3.8193   3.9330   4.2813
     4.3264   4.4554   6.3131   6.3853   6.4768   6.6144   6.7650   7.0152
     7.2460   7.5237

          k = 0.5081 0.1290-0.2971 ( 36466 PWs)   bands (ev):

   -44.1642 -44.1642 -22.2647 -22.2647 -22.2155 -22.2155 -22.1026 -22.1026
    -7.9976  -7.9976  -6.8804  -6.8804  -5.5527  -5.5527  -4.7050  -4.7050
    -4.5352  -4.5352  -0.0419  -0.0419   0.8777   0.8777   0.9905   0.9905
     1.4897   1.4897   2.0573   2.0573   2.6150   2.6150   3.1861   3.1861
     3.3790   3.3790   3.6070   3.6070   3.7913   3.7913   3.9872   3.9872
     4.3716   4.3716   6.5349   6.5349   6.5763   6.5763   6.9001   6.9001
     7.3340   7.3340

          k = 0.7622 0.1934 0.0000 ( 36521 PWs)   bands (ev):

   -44.1633 -44.1633 -22.2600 -22.2600 -22.2380 -22.2380 -22.1001 -22.1000
    -7.4406  -7.3106  -6.7900  -6.7088  -5.7772  -5.6559  -5.1576  -5.0908
    -4.4595  -4.4200  -0.3962  -0.0215   0.0364   0.8607   0.8851   1.3212
     1.4944   1.5910   2.0235   2.0752   2.2233   2.3413   2.4886   2.8253
     3.0509   3.1748   3.3436   3.4150   3.5457   3.6495   3.7059   3.7745
     3.9374   4.6072   6.3852   6.5375   6.6870   6.9985   7.0145   7.0657
     7.4145   7.6072

          k = 0.7622 0.1934 0.1485 ( 36503 PWs)   bands (ev):

   -44.1633 -44.1633 -22.2600 -22.2600 -22.2380 -22.2380 -22.1001 -22.1001
    -7.4241  -7.3329  -6.7755  -6.7188  -5.7564  -5.6702  -5.1520  -5.1054
    -4.4527  -4.4250  -0.3576  -0.0942   0.1436   0.7278   0.9231   1.2585
     1.5014   1.5840   1.9686   2.0130   2.2223   2.5343   2.7254   2.9146
     2.9702   3.0206   3.2685   3.3143   3.5031   3.5883   3.8178   3.9298
     4.0122   4.4700   6.2290   6.5074   6.8131   6.9703   7.0665   7.1711
     7.2569   7.6711

          k = 0.7622 0.1934-0.2971 ( 36522 PWs)   bands (ev):

   -44.1633 -44.1633 -22.2600 -22.2600 -22.2380 -22.2380 -22.1001 -22.1001
    -7.3813  -7.3813  -6.7449  -6.7449  -5.7100  -5.7100  -5.1331  -5.1331
    -4.4379  -4.4379  -0.2425  -0.2425   0.4188   0.4188   1.0692   1.0692
     1.5504   1.5504   1.9672   1.9672   2.4817   2.4817   2.8602   2.8602
     2.9367   2.9367   3.2437   3.2437   3.5845   3.5845   3.9702   3.9702
     4.1256   4.1256   6.5317   6.5317   6.5942   6.5942   7.1044   7.1044
     7.6286   7.6287

          k =-1.0162-0.2579 0.0000 ( 36506 PWs)   bands (ev):

   -44.1629 -44.1629 -22.2580 -22.2580 -22.2473 -22.2473 -22.0990 -22.0990
    -6.8193  -6.7972  -6.5140  -6.5110  -6.4870  -6.4744  -5.1092  -5.1088
    -4.4004  -4.3683  -0.2262  -0.2097   0.0766   0.0973   1.0151   1.0211
     1.4667   1.6514   2.1841   2.3346   2.3708   2.3979   2.7645   2.8569
     2.8876   2.9451   3.1657   3.1968   3.2685   3.3261   3.4261   3.5749
     4.0807   4.3157   6.7488   6.8104   6.9733   6.9816   7.1556   7.2595
     7.2600   7.3334

          k =-1.0162-0.2579 0.1485 ( 36506 PWs)   bands (ev):

   -44.1629 -44.1629 -22.2580 -22.2580 -22.2473 -22.2473 -22.0990 -22.0990
    -6.8115  -6.7951  -6.5512  -6.5446  -6.4526  -6.4473  -5.1080  -5.1077
    -4.3974  -4.3747  -0.3109  -0.3057   0.2394   0.2480   1.0123   1.0182
     1.4566   1.5843   2.1034   2.2592   2.3088   2.3826   2.6072   2.6505
     2.9168   2.9916   3.1462   3.2378   3.4480   3.5202   3.5806   3.6552
     4.1791   4.3234   6.4540   6.4763   6.6458   6.7237   7.2732   7.2770
     7.5128   7.5798

          k =-1.0162-0.2579-0.2971 ( 36528 PWs)   bands (ev):

   -44.1629 -44.1629 -22.2580 -22.2580 -22.2473 -22.2473 -22.0990 -22.0990
    -6.7980  -6.7980  -6.5694  -6.5694  -6.4335  -6.4335  -5.1067  -5.1067
    -4.3878  -4.3878  -0.3657  -0.3657   0.3838   0.3838   0.9946   0.9946
     1.4939   1.4939   2.0324   2.0324   2.3231   2.3231   2.7315   2.7315
     2.7744   2.7744   3.2328   3.2328   3.6016   3.6016   3.7416   3.7416
     4.3387   4.3387   6.1501   6.1501   6.5816   6.5816   7.2838   7.2839
     7.6600   7.6600

          k = 0.5081 0.0000 0.0000 ( 36503 PWs)   bands (ev):

   -44.1642 -44.1642 -22.2647 -22.2647 -22.2155 -22.2155 -22.1026 -22.1025
    -8.0585  -7.9293  -6.9304  -6.8407  -5.7464  -5.2067  -4.9633  -4.5817
    -4.5507  -4.5329  -0.2718   0.2192   0.7551   0.7622   1.1655   1.2905
     1.6176   1.6355   1.7111   2.0730   2.1306   2.4937   2.6674   3.4208
     3.4490   3.5832   3.6233   3.7612   3.7684   3.9030   4.0242   4.2920
     4.3214   4.7424   6.0551   6.2219   6.3837   6.5797   6.6293   7.1747
     7.3814   7.5642

          k = 0.5081 0.0000 0.1485 ( 36453 PWs)   bands (ev):

   -44.1642 -44.1642 -22.2647 -22.2647 -22.2155 -22.2155 -22.1026 -22.1025
    -8.0416  -7.9507  -6.9143  -6.8514  -5.6949  -5.3508  -4.8444  -4.6036
    -4.5676  -4.5199  -0.2107   0.1521   0.7306   0.8288   1.1434   1.1879
     1.3721   1.5771   1.9983   2.1059   2.2344   2.5532   2.9234   3.3042
     3.4781   3.4934   3.5786   3.7551   3.8003   3.8749   3.8845   4.3025
     4.3591   4.4307   6.2982   6.3907   6.4949   6.5744   6.7284   7.0509
     7.2540   7.5467

          k = 0.5081 0.0000-0.2971 ( 36452 PWs)   bands (ev):

   -44.1642 -44.1642 -22.2647 -22.2647 -22.2155 -22.2155 -22.1026 -22.1026
    -7.9983  -7.9983  -6.8802  -6.8802  -5.5510  -5.5510  -4.7024  -4.7024
    -4.5370  -4.5370  -0.0414  -0.0414   0.8748   0.8748   0.9944   0.9944
     1.4576   1.4576   2.0627   2.0627   2.6028   2.6028   3.1977   3.1977
     3.3898   3.3898   3.6061   3.6061   3.8239   3.8239   3.9665   3.9665
     4.3880   4.3880   6.5344   6.5344   6.5546   6.5546   6.9167   6.9167
     7.3399   7.3399

          k = 0.7622 0.0645 0.0000 ( 36505 PWs)   bands (ev):

   -44.1633 -44.1633 -22.2600 -22.2600 -22.2380 -22.2380 -22.1001 -22.1000
    -7.4434  -7.3112  -6.7871  -6.7081  -5.7779  -5.6545  -5.1563  -5.0911
    -4.4475  -4.4327  -0.3886  -0.0132   0.0338   0.8524   0.9128   1.3338
     1.4708   1.5491   1.9885   2.0608   2.2576   2.3628   2.4390   2.8009
     3.0435   3.2094   3.3472   3.4276   3.6091   3.6666   3.7158   3.7612
     3.8613   4.6217   6.3837   6.5054   6.7197   6.9892   7.0239   7.0506
     7.4153   7.6628

          k = 0.7622 0.0645 0.1485 ( 36509 PWs)   bands (ev):

   -44.1633 -44.1633 -22.2600 -22.2600 -22.2380 -22.2380 -22.1001 -22.1001
    -7.4267  -7.3340  -6.7726  -6.7176  -5.7570  -5.6693  -5.1509  -5.1054
    -4.4442  -4.4338  -0.3500  -0.0869   0.1408   0.7193   0.9478   1.2694
     1.4774   1.5785   1.9373   1.9638   2.2327   2.5282   2.7296   2.9021
     2.9813   3.0109   3.2946   3.3206   3.5437   3.5770   3.8110   3.9642
     3.9682   4.4595   6.2539   6.4822   6.8339   6.9680   7.0449   7.1950
     7.2398   7.7119

          k = 0.7622 0.0645-0.2971 ( 36472 PWs)   bands (ev):

   -44.1633 -44.1633 -22.2600 -22.2600 -22.2380 -22.2380 -22.1001 -22.1001
    -7.3832  -7.3832  -6.7427  -6.7427  -5.7100  -5.7100  -5.1325  -5.1325
    -4.4380  -4.4380  -0.2351  -0.2351   0.4134   0.4134   1.0856   1.0856
     1.5469   1.5469   1.9152   1.9152   2.4925   2.4925   2.8636   2.8636
     2.9106   2.9106   3.2857   3.2857   3.5811   3.5811   4.0067   4.0067
     4.0771   4.0771   6.5618   6.5618   6.5906   6.5906   7.0767   7.0767
     7.6576   7.6576

          k = 1.0162 0.1290 0.0000 ( 36514 PWs)   bands (ev):

   -44.1629 -44.1629 -22.2580 -22.2580 -22.2473 -22.2473 -22.0990 -22.0990
    -6.8193  -6.7972  -6.5140  -6.5110  -6.4869  -6.4745  -5.1092  -5.1088
    -4.4004  -4.3683  -0.2317  -0.2041   0.0748   0.0991   1.0055   1.0314
     1.4744   1.6402   2.1795   2.3427   2.3802   2.3877   2.7463   2.8918
     2.8942   2.9356   3.1533   3.1875   3.2796   3.3105   3.4397   3.5757
     4.0615   4.3351   6.7412   6.8231   6.9486   7.0058   7.1822   7.2594
     7.2617   7.3079

          k = 1.0162 0.1290 0.1485 ( 36524 PWs)   bands (ev):

   -44.1629 -44.1629 -22.2580 -22.2580 -22.2473 -22.2473 -22.0990 -22.0990
    -6.8115  -6.7951  -6.5511  -6.5446  -6.4526  -6.4473  -5.1080  -5.1077
    -4.3974  -4.3747  -0.3135  -0.3034   0.2404   0.2473   1.0079   1.0226
     1.4638   1.5768   2.1064   2.2456   2.3127   2.3852   2.6084   2.6576
     2.9012   3.0064   3.1479   3.2326   3.4558   3.4924   3.6054   3.6526
     4.1591   4.3431   6.4517   6.4863   6.6418   6.7250   7.2743   7.2772
     7.5191   7.5723

          k = 1.0162 0.1290-0.2971 ( 36516 PWs)   bands (ev):

   -44.1629 -44.1629 -22.2580 -22.2580 -22.2473 -22.2473 -22.0990 -22.0990
    -6.7980  -6.7980  -6.5694  -6.5694  -6.4335  -6.4335  -5.1067  -5.1067
    -4.3878  -4.3878  -0.3658  -0.3658   0.3840   0.3840   0.9943   0.9943
     1.4951   1.4951   2.0320   2.0320   2.3207   2.3207   2.7129   2.7129
     2.7976   2.7976   3.2281   3.2281   3.6033   3.6033   3.7414   3.7414
     4.3396   4.3396   6.1535   6.1535   6.5805   6.5805   7.2844   7.2844
     7.6584   7.6585

          k =-0.7622-0.3224 0.0000 ( 36511 PWs)   bands (ev):

   -44.1633 -44.1633 -22.2600 -22.2600 -22.2380 -22.2380 -22.1001 -22.1000
    -7.4365  -7.3098  -6.7944  -6.7095  -5.7762  -5.6580  -5.1594  -5.0905
    -4.4687  -4.4101  -0.4067  -0.0315   0.0381   0.8531   0.8724   1.3058
     1.5016   1.6671   2.0881   2.0979   2.2116   2.3098   2.4851   2.8640
     3.0567   3.1647   3.3370   3.3981   3.5136   3.6090   3.6927   3.7124
     4.0773   4.5804   6.3871   6.5823   6.6566   6.9218   7.0513   7.1384
     7.4036   7.5322

          k =-0.7622-0.3224 0.1485 ( 36492 PWs)   bands (ev):

   -44.1633 -44.1633 -22.2600 -22.2600 -22.2380 -22.2380 -22.1001 -22.1001
    -7.4204  -7.3315  -6.7797  -6.7203  -5.7555  -5.6716  -5.1535  -5.1055
    -4.4592  -4.4180  -0.3682  -0.1041   0.1470   0.7397   0.8940   1.2429
     1.5229   1.6016   2.0155   2.0825   2.2180   2.5324   2.6939   2.9386
     2.9718   3.0419   3.2475   3.2894   3.4732   3.5734   3.8039   3.8804
     4.0981   4.4830   6.1968   6.5462   6.7775   6.9688   7.0823   7.1793
     7.2779   7.5939

          k =-0.7622-0.3224-0.2971 ( 36508 PWs)   bands (ev):

   -44.1633 -44.1633 -22.2600 -22.2600 -22.2380 -22.2380 -22.1001 -22.1001
    -7.3786  -7.3786  -6.7481  -6.7481  -5.7100  -5.7100  -5.1340  -5.1340
    -4.4378  -4.4378  -0.2527  -0.2527   0.4260   0.4260   1.0494   1.0494
     1.5572   1.5572   2.0336   2.0336   2.4747   2.4747   2.8578   2.8578
     2.9703   2.9703   3.1879   3.1879   3.5819   3.5819   3.9224   3.9224
     4.1907   4.1907   6.4979   6.4979   6.5932   6.5932   7.1478   7.1478
     7.5619   7.5620

          k =-0.5081-0.2579 0.0000 ( 36480 PWs)   bands (ev):

   -44.1642 -44.1642 -22.2647 -22.2647 -22.2155 -22.2155 -22.1026 -22.1025
    -8.0546  -7.9284  -6.9308  -6.8397  -5.7558  -5.2100  -4.9702  -4.6001
    -4.5347  -4.5287  -0.2848   0.2424   0.7105   0.7671   1.1765   1.4231
     1.6483   1.6600   1.7771   2.0529   2.1337   2.5241   2.6470   3.3511
     3.4855   3.4958   3.5991   3.6943   3.7749   3.7965   4.1125   4.1988
     4.2759   4.7864   6.0350   6.2730   6.3261   6.7056   6.8095   7.0399
     7.3706   7.4620

          k =-0.5081-0.2579 0.1485 ( 36485 PWs)   bands (ev):

   -44.1642 -44.1642 -22.2647 -22.2647 -22.2155 -22.2155 -22.1026 -22.1025
    -8.0381  -7.9492  -6.9150  -6.8510  -5.7031  -5.3546  -4.8532  -4.6043
    -4.5765  -4.5070  -0.2209   0.1665   0.7112   0.8235   1.1333   1.2236
     1.5077   1.6583   1.9851   2.0579   2.2959   2.5792   2.9075   3.2492
     3.4096   3.5185   3.5407   3.6863   3.7439   3.7853   4.0191   4.2140
     4.2842   4.4933   6.3451   6.3543   6.4553   6.7050   6.8585   6.9432
     7.2195   7.4756

          k =-0.5081-0.2579-0.2971 ( 36478 PWs)   bands (ev):

   -44.1642 -44.1642 -22.2647 -22.2647 -22.2155 -22.2155 -22.1026 -22.1026
    -7.9957  -7.9957  -6.8808  -6.8808  -5.5566  -5.5566  -4.7111  -4.7111
    -4.5311  -4.5311  -0.0431  -0.0431   0.8850   0.8850   0.9814   0.9814
     1.5755   1.5755   2.0376   2.0376   2.6515   2.6515   3.1391   3.1391
     3.3594   3.3594   3.6050   3.6050   3.7268   3.7268   4.0304   4.0304
     4.3356   4.3356   6.5054   6.5054   6.6535   6.6535   6.8633   6.8633
     7.3263   7.3263

          k =-0.2541-0.1934 0.0000 ( 36410 PWs)   bands (ev):

   -44.1651 -44.1650 -22.2694 -22.2693 -22.1929 -22.1928 -22.1052 -22.1050
    -8.4438  -8.3140  -7.0757  -6.9618  -5.9074  -5.3370  -4.7269  -4.6507
    -4.6063  -3.9198   0.2154   0.5368   0.9663   1.0067   1.0921   1.3410
     1.3594   1.6182   1.7596   2.5847   2.6409   3.1249   3.4270   3.6611
     3.7421   3.7668   3.9148   3.9222   3.9673   4.2276   4.2763   4.4245
     4.4842   4.7082   6.0389   6.0776   6.1823   6.2138   6.3803   6.8596
     7.0397   7.2042

          k =-0.2541-0.1934 0.1485 ( 36427 PWs)   bands (ev):

   -44.1651 -44.1650 -22.2694 -22.2693 -22.1929 -22.1929 -22.1051 -22.1050
    -8.4267  -8.3353  -7.0556  -6.9756  -5.8510  -5.4709  -4.7149  -4.6572
    -4.4621  -3.9962   0.2829   0.5192   0.8038   1.0178   1.0894   1.2308
     1.3919   1.7259   2.0247   2.5850   2.6308   2.9161   3.4536   3.4892
     3.5682   3.8351   3.8943   3.9167   4.0611   4.2319   4.4284   4.4744
     4.5757   4.7950   5.9185   5.9490   6.1477   6.2426   6.2790   6.8661
     7.1822   7.2072

          k =-0.2541-0.1934-0.2971 ( 36422 PWs)   bands (ev):

   -44.1651 -44.1651 -22.2694 -22.2694 -22.1929 -22.1929 -22.1051 -22.1051
    -8.3831  -8.3831  -7.0125  -7.0125  -5.6910  -5.6910  -4.6859  -4.6859
    -4.2014  -4.2014   0.4363   0.4363   0.7754   0.7754   1.1769   1.1769
     1.6161   1.6161   2.4730   2.4730   2.6440   2.6440   3.3240   3.3240
     3.7569   3.7569   3.8701   3.8701   4.1905   4.1905   4.4532   4.4532
     4.8734   4.8734   5.7448   5.7448   6.1812   6.1812   6.5299   6.5299
     7.3184   7.3184

          k = 0.0000-0.1290 0.0000 ( 36417 PWs)   bands (ev):

   -44.1654 -44.1654 -22.2713 -22.2713 -22.1834 -22.1834 -22.1062 -22.1060
    -8.5763  -8.4447  -7.1379  -7.0126  -5.9590  -5.3841  -4.7625  -4.6979
    -4.5284  -3.7043   0.1422   0.8626   0.9100   1.1552   1.1968   1.4045
     1.4603   1.5530   2.2567   2.8546   2.9249   2.9273   3.1331   3.4969
     3.9610   4.0142   4.0199   4.0234   4.2847   4.4355   4.5310   4.6143
     4.7871   5.0344   5.6228   5.8224   5.8801   6.0060   6.2409   6.5791
     7.2017   7.2110

          k = 0.0000-0.1290 0.1485 ( 36419 PWs)   bands (ev):

   -44.1654 -44.1654 -22.2713 -22.2713 -22.1834 -22.1834 -22.1062 -22.1061
    -8.5591  -8.4663  -7.1157  -7.0277  -5.9028  -5.5189  -4.7504  -4.7053
    -4.3664  -3.8044   0.2240   0.8218   0.9485   0.9927   1.1669   1.4122
     1.4516   1.8320   1.9943   2.8660   2.9156   2.9361   3.3153   3.5749
     3.8852   3.9908   4.0269   4.0613   4.3338   4.3499   4.5060   4.6710
     4.7186   4.7737   5.8074   5.8484   5.8736   6.2151   6.3579   6.4695
     7.0030   7.0097

          k = 0.0000-0.1290-0.2971 ( 36464 PWs)   bands (ev):

   -44.1654 -44.1654 -22.2713 -22.2713 -22.1834 -22.1834 -22.1061 -22.1061
    -8.5148  -8.5148  -7.0682  -7.0682  -5.7420  -5.7420  -4.7271  -4.7271
    -4.0610  -4.0610   0.4609   0.4609   1.0383   1.0383   1.3803   1.3803
     1.4314   1.4314   2.4876   2.4876   2.8919   2.8919   3.6887   3.6887
     3.8678   3.8678   4.1586   4.1586   4.1770   4.1770   4.4946   4.4946
     4.7347   4.7347   5.8470   5.8470   6.1673   6.1673   6.6239   6.6239
     6.6516   6.6516

          k = 1.0162 0.0000 0.0000 ( 36499 PWs)   bands (ev):

   -44.1629 -44.1629 -22.2580 -22.2580 -22.2473 -22.2473 -22.0990 -22.0990
    -6.8193  -6.7972  -6.5140  -6.5109  -6.4868  -6.4746  -5.1092  -5.1088
    -4.4004  -4.3683  -0.2355  -0.2002   0.0732   0.1008   1.0008   1.0367
     1.4835   1.6277   2.1754   2.3598   2.3685   2.3892   2.7342   2.9102
     2.9165   2.9235   3.1178   3.2195   3.2796   3.2846   3.4536   3.5763
     4.0449   4.3520   6.7353   6.8344   6.9368   7.0171   7.2410   7.2502
     7.2595   7.2630

          k = 1.0162 0.0000 0.1485 ( 36485 PWs)   bands (ev):

   -44.1629 -44.1629 -22.2580 -22.2580 -22.2473 -22.2473 -22.0990 -22.0990
    -6.8116  -6.7951  -6.5511  -6.5446  -6.4525  -6.4474  -5.1080  -5.1077
    -4.3974  -4.3747  -0.3152  -0.3019   0.2418   0.2464   1.0054   1.0251
     1.4721   1.5680   2.1098   2.2326   2.3184   2.3849   2.6133   2.6608
     2.8905   3.0173   3.1505   3.2263   3.4644   3.4739   3.6175   3.6528
     4.1427   4.3593   6.4510   6.4948   6.6379   6.7261   7.2755   7.2774
     7.5283   7.5618

          k = 1.0162 0.0000-0.2971 ( 36514 PWs)   bands (ev):

   -44.1629 -44.1629 -22.2580 -22.2580 -22.2473 -22.2473 -22.0990 -22.0990
    -6.7980  -6.7980  -6.5694  -6.5694  -6.4335  -6.4335  -5.1067  -5.1067
    -4.3878  -4.3878  -0.3659  -0.3659   0.3842   0.3842   0.9941   0.9941
     1.4963   1.4963   2.0316   2.0316   2.3184   2.3184   2.7012   2.7012
     2.8139   2.8139   3.2232   3.2232   3.6050   3.6050   3.7411   3.7411
     4.3405   4.3405   6.1570   6.1570   6.5793   6.5793   7.2849   7.2849
     7.6566   7.6566

          k = 1.2703 0.0645 0.0000 ( 36468 PWs)   bands (ev):

   -44.1633 -44.1633 -22.2600 -22.2600 -22.2380 -22.2380 -22.1001 -22.1000
    -7.4336  -7.3092  -6.7977  -6.7099  -5.7755  -5.6595  -5.1606  -5.0903
    -4.4736  -4.4046  -0.4141  -0.0377   0.0385   0.8339   0.8806   1.2963
     1.5006   1.7234   2.1168   2.1307   2.2645   2.2856   2.4057   2.8961
     3.0557   3.1795   3.3530   3.3819   3.5122   3.5614   3.6549   3.6820
     4.1803   4.5515   6.3884   6.6100   6.6498   6.8660   7.0783   7.2111
     7.3776   7.5027

          k = 1.2703 0.0645 0.1485 ( 36490 PWs)   bands (ev):

   -44.1633 -44.1633 -22.2600 -22.2600 -22.2380 -22.2380 -22.1001 -22.1001
    -7.4178  -7.3304  -6.7828  -6.7213  -5.7549  -5.6725  -5.1545  -5.1056
    -4.4626  -4.4142  -0.3756  -0.1108   0.1489   0.7478   0.8765   1.2327
     1.5298   1.6202   2.0549   2.1162   2.2386   2.5234   2.6510   2.9618
     2.9762   3.0701   3.2376   3.2605   3.4779   3.5365   3.7874   3.8454
     4.1676   4.4894   6.1765   6.5771   6.7476   6.9653   7.0753   7.2331
     7.2824   7.5342

          k = 1.2703 0.0645-0.2971 ( 36480 PWs)   bands (ev):

   -44.1633 -44.1633 -22.2600 -22.2600 -22.2380 -22.2380 -22.1001 -22.1001
    -7.3767  -7.3767  -6.7504  -6.7504  -5.7099  -5.7099  -5.1346  -5.1346
    -4.4377  -4.4377  -0.2598  -0.2598   0.4308   0.4308   1.0375   1.0375
     1.5629   1.5629   2.0748   2.0748   2.4776   2.4776   2.8594   2.8594
     2.9854   2.9854   3.1554   3.1554   3.5745   3.5745   3.8891   3.8891
     4.2369   4.2369   6.4772   6.4772   6.5911   6.5911   7.1824   7.1824
     7.4951   7.4952

          k =-0.5081-0.3869 0.0000 ( 36463 PWs)   bands (ev):

   -44.1642 -44.1642 -22.2647 -22.2647 -22.2155 -22.2155 -22.1026 -22.1025
    -8.0519  -7.9278  -6.9316  -6.8385  -5.7626  -5.2124  -4.9750  -4.6071
    -4.5359  -4.5190  -0.2938   0.2586   0.6956   0.7550   1.1847   1.5443
     1.6589   1.6908   1.8131   2.0296   2.1511   2.5212   2.6296   3.2746
     3.4843   3.5223   3.5882   3.5995   3.7225   3.8027   4.1029   4.1875
     4.2630   4.8126   6.0242   6.2054   6.3921   6.8040   6.9503   6.9516
     7.3465   7.4180

          k =-0.5081-0.3869 0.1485 ( 36477 PWs)   bands (ev):

   -44.1642 -44.1642 -22.2647 -22.2647 -22.2155 -22.2155 -22.1026 -22.1025
    -8.0356  -7.9481  -6.9158  -6.8504  -5.7089  -5.3572  -4.8594  -4.6051
    -4.5803  -4.4999  -0.2280   0.1764   0.7018   0.8148   1.1320   1.2466
     1.6307   1.7307   1.9461   2.0261   2.3547   2.5709   2.8907   3.1964
     3.3632   3.5244   3.5417   3.6076   3.7362   3.7485   4.0862   4.1519
     4.2507   4.5256   6.2906   6.3916   6.4497   6.7949   6.8433   7.0090
     7.1767   7.4477

          k =-0.5081-0.3869-0.2971 ( 36492 PWs)   bands (ev):

   -44.1642 -44.1642 -22.2647 -22.2647 -22.2155 -22.2155 -22.1026 -22.1026
    -7.9939  -7.9939  -6.8812  -6.8812  -5.5606  -5.5606  -4.7170  -4.7170
    -4.5272  -4.5272  -0.0442  -0.0442   0.8926   0.8926   0.9724   0.9724
     1.6836   1.6836   1.9989   1.9989   2.7064   2.7064   3.0530   3.0530
     3.3505   3.3505   3.5943   3.5943   3.6847   3.6847   4.0598   4.0598
     4.3106   4.3106   6.4760   6.4760   6.7052   6.7052   6.8435   6.8435
     7.3393   7.3393

          k =-0.2541-0.3224 0.0000 ( 36485 PWs)   bands (ev):

   -44.1651 -44.1651 -22.2694 -22.2693 -22.1929 -22.1928 -22.1052 -22.1050
    -8.4411  -8.3134  -7.0724  -6.9589  -5.9228  -5.3442  -4.7467  -4.6381
    -4.6030  -3.9206   0.2406   0.5287   0.9736   1.0127   1.1991   1.3751
     1.4087   1.7069   1.7768   2.5226   2.5971   3.1616   3.5018   3.5868
     3.6278   3.6550   3.7951   3.9141   3.9720   4.1499   4.1808   4.3624
     4.4110   4.7677   6.0912   6.1636   6.1717   6.3216   6.4224   6.9273
     6.9627   7.1244

          k =-0.2541-0.3224 0.1485 ( 36445 PWs)   bands (ev):

   -44.1651 -44.1650 -22.2694 -22.2694 -22.1929 -22.1929 -22.1051 -22.1050
    -8.4243  -8.3343  -7.0528  -6.9730  -5.8648  -5.4787  -4.7297  -4.6494
    -4.4599  -3.9964   0.3091   0.5161   0.8025   1.0486   1.1838   1.2834
     1.4343   1.7495   2.0853   2.5251   2.5894   2.9497   3.4393   3.4711
     3.6342   3.6413   3.6914   3.9169   4.0159   4.1689   4.3674   4.4041
     4.5544   4.8423   5.9313   5.9401   6.1946   6.3131   6.3851   6.8185
     7.1737   7.1922

          k =-0.2541-0.3224-0.2971 ( 36442 PWs)   bands (ev):

   -44.1651 -44.1651 -22.2694 -22.2694 -22.1929 -22.1929 -22.1051 -22.1051
    -8.3813  -8.3813  -7.0102  -7.0102  -5.7014  -5.7014  -4.6896  -4.6896
    -4.2003  -4.2003   0.4534   0.4534   0.7866   0.7866   1.2596   1.2596
     1.6407   1.6407   2.4813   2.4813   2.6337   2.6337   3.3133   3.3133
     3.6300   3.6300   3.8297   3.8297   4.1337   4.1337   4.3889   4.3889
     4.8936   4.8936   5.7340   5.7340   6.2346   6.2346   6.5519   6.5519
     7.3092   7.3093

          k = 0.0000-0.2579 0.0000 ( 36445 PWs)   bands (ev):

   -44.1654 -44.1654 -22.2713 -22.2713 -22.1834 -22.1834 -22.1062 -22.1060
    -8.5739  -8.4441  -7.1332  -7.0095  -5.9760  -5.3927  -4.7796  -4.6845
    -4.5288  -3.7048   0.1689   0.8685   1.0172   1.1817   1.2522   1.4039
     1.4597   1.6261   2.2473   2.8720   2.9311   2.9353   3.1390   3.6030
     3.6719   3.7222   3.9914   4.0072   4.1619   4.4099   4.4365   4.5803
     4.7832   5.0115   5.6633   5.9076   5.9686   6.0763   6.2613   6.6194
     7.0677   7.2112

          k = 0.0000-0.2579 0.1485 ( 36452 PWs)   bands (ev):

   -44.1654 -44.1654 -22.2713 -22.2713 -22.1834 -22.1834 -22.1062 -22.1061
    -8.5568  -8.4654  -7.1116  -7.0247  -5.9183  -5.5282  -4.7645  -4.6963
    -4.3662  -3.8045   0.2530   0.8600   0.9934   1.0576   1.2275   1.4116
     1.4510   1.8463   2.0345   2.8824   2.9271   2.9533   3.2911   3.6295
     3.6959   3.7444   3.9306   4.0338   4.2304   4.3186   4.3994   4.6542
     4.7078   4.7693   5.8634   5.9107   5.9547   6.2320   6.3749   6.5096
     6.8963   7.0066

          k = 0.0000-0.2579-0.2971 ( 36454 PWs)   bands (ev):

   -44.1654 -44.1654 -22.2713 -22.2713 -22.1834 -22.1834 -22.1061 -22.1061
    -8.5132  -8.5132  -7.0649  -7.0649  -5.7540  -5.7540  -4.7300  -4.7300
    -4.0607  -4.0607   0.4955   0.4955   1.1164   1.1164   1.3913   1.3913
     1.4308   1.4308   2.5232   2.5232   2.9059   2.9059   3.5951   3.5951
     3.7853   3.7853   4.0516   4.0516   4.1532   4.1532   4.4159   4.4159
     4.7273   4.7273   5.9139   5.9139   6.2087   6.2087   6.5695   6.5695
     6.6618   6.6618

          k = 1.5243 0.0000 0.0000 ( 36439 PWs)   bands (ev):

   -44.1642 -44.1642 -22.2647 -22.2647 -22.2155 -22.2155 -22.1026 -22.1025
    -8.0507  -7.9275  -6.9321  -6.8378  -5.7654  -5.2133  -4.9771  -4.6094
    -4.5364  -4.5156  -0.2975   0.2653   0.6913   0.7484   1.1881   1.6112
     1.6730   1.7038   1.7979   2.0188   2.1792   2.5008   2.6217   3.2509
     3.4698   3.5424   3.5523   3.6004   3.6992   3.8064   4.0578   4.2204
     4.2574   4.8225   6.0202   6.1741   6.4237   6.8481   6.9161   7.0207
     7.3207   7.4708

          k = 1.5243 0.0000 0.1485 ( 36476 PWs)   bands (ev):

   -44.1642 -44.1642 -22.2647 -22.2647 -22.2155 -22.2155 -22.1026 -22.1025
    -8.0345  -7.9477  -6.9163  -6.8500  -5.7114  -5.3582  -4.8619  -4.6056
    -4.5815  -4.4973  -0.2308   0.1804   0.6987   0.8103   1.1323   1.2556
     1.7183   1.7468   1.9193   2.0015   2.4065   2.5381   2.8796   3.1869
     3.3268   3.5325   3.5418   3.5850   3.7301   3.7372   4.0785   4.1599
     4.2355   4.5389   6.2633   6.4096   6.4496   6.8073   6.8384   7.0878
     7.1339   7.4638

          k = 1.5243 0.0000-0.2971 ( 36508 PWs)   bands (ev):

   -44.1642 -44.1642 -22.2647 -22.2647 -22.2155 -22.2155 -22.1026 -22.1026
    -7.9931  -7.9931  -6.8814  -6.8814  -5.5622  -5.5622  -4.7194  -4.7194
    -4.5257  -4.5257  -0.0447  -0.0447   0.8959   0.8959   0.9685   0.9685
     1.7446   1.7446   1.9680   1.9680   2.7426   2.7426   2.9979   2.9979
     3.3498   3.3498   3.5867   3.5867   3.6742   3.6742   4.0654   4.0654
     4.3063   4.3063   6.4639   6.4639   6.7105   6.7105   6.8470   6.8470
     7.3568   7.3568

          k =-0.2541-0.4514 0.0000 ( 36444 PWs)   bands (ev):

   -44.1651 -44.1651 -22.2694 -22.2693 -22.1929 -22.1928 -22.1052 -22.1050
    -8.4392  -8.3129  -7.0704  -6.9563  -5.9339  -5.3492  -4.7588  -4.6266
    -4.6051  -3.9211   0.2545   0.5234   0.9792   1.0167   1.3120   1.3985
     1.4223   1.7852   1.8093   2.4579   2.5275   3.2307   3.4405   3.4706
     3.5568   3.6189   3.8684   3.9059   3.9751   4.0616   4.1114   4.2870
     4.3952   4.8066   6.1237   6.1446   6.2545   6.3852   6.4480   6.8882
     6.9721   7.0784

          k =-0.2541-0.4514 0.1485 ( 36461 PWs)   bands (ev):

   -44.1651 -44.1651 -22.2694 -22.2694 -22.1929 -22.1929 -22.1051 -22.1050
    -8.4225  -8.3335  -7.0510  -6.9708  -5.8747  -5.4842  -4.7389  -4.6451
    -4.4586  -3.9965   0.3241   0.5138   0.8016   1.0702   1.2354   1.3548
     1.4722   1.7767   2.1494   2.4634   2.5159   2.9953   3.3728   3.4130
     3.5192   3.5871   3.7694   3.9144   3.9976   4.0657   4.3180   4.3824
     4.5409   4.8737   5.9312   5.9419   6.2324   6.3501   6.4481   6.7607
     7.1792   7.1905

          k =-0.2541-0.4514-0.2971 ( 36490 PWs)   bands (ev):

   -44.1651 -44.1651 -22.2694 -22.2694 -22.1929 -22.1929 -22.1051 -22.1051
    -8.3800  -8.3800  -7.0085  -7.0085  -5.7088  -5.7088  -4.6922  -4.6922
    -4.1995  -4.1995   0.4632   0.4632   0.7925   0.7925   1.3299   1.3299
     1.6694   1.6694   2.4739   2.4739   2.6228   2.6228   3.2852   3.2852
     3.4994   3.4994   3.8985   3.8985   4.0611   4.0611   4.3531   4.3531
     4.9065   4.9065   5.7289   5.7289   6.2497   6.2497   6.5685   6.5685
     7.3082   7.3082

          k = 0.0000-0.3869 0.0000 ( 36477 PWs)   bands (ev):

   -44.1654 -44.1654 -22.2713 -22.2713 -22.1834 -22.1834 -22.1062 -22.1060
    -8.5715  -8.4436  -7.1289  -7.0057  -5.9933  -5.4013  -4.7940  -4.6727
    -4.5304  -3.7052   0.1885   0.8769   1.1592   1.2051   1.3185   1.4032
     1.4590   1.7015   2.2392   2.8908   2.9439   2.9452   3.1460   3.3427
     3.4497   3.7535   3.9625   4.0307   4.0320   4.2511   4.4374   4.5464
     4.7794   4.9941   5.7040   5.9668   6.0244   6.1635   6.2820   6.6548
     6.9150   7.2112

          k = 0.0000-0.3869 0.1485 ( 36452 PWs)   bands (ev):

   -44.1654 -44.1654 -22.2713 -22.2713 -22.1834 -22.1834 -22.1062 -22.1060
    -8.5546  -8.4644  -7.1077  -7.0211  -5.9339  -5.5373  -4.7760  -4.6898
    -4.3661  -3.8046   0.2745   0.8910   1.0069   1.1966   1.2981   1.4109
     1.4504   1.8587   2.0840   2.9000   2.9383   2.9778   3.2334   3.3499
     3.4672   3.8286   3.9611   4.0059   4.1223   4.2472   4.3018   4.6391
     4.7033   4.7651   5.9177   5.9564   6.0031   6.2541   6.3923   6.5426
     6.7670   7.0102

          k = 0.0000-0.3869-0.2971 ( 36454 PWs)   bands (ev):

   -44.1654 -44.1654 -22.2713 -22.2713 -22.1834 -22.1834 -22.1061 -22.1061
    -8.5115  -8.5115  -7.0616  -7.0616  -5.7661  -5.7661  -4.7330  -4.7330
    -4.0603  -4.0603   0.5225   0.5225   1.2164   1.2164   1.4091   1.4091
     1.4302   1.4302   2.5664   2.5664   2.9203   2.9203   3.3164   3.3164
     3.8248   3.8248   4.0221   4.0221   4.1286   4.1286   4.3322   4.3322
     4.7205   4.7205   5.9536   5.9536   6.2568   6.2568   6.4977   6.4977
     6.6722   6.6722

          k =-2.0325 0.0000 0.0000 ( 36452 PWs)   bands (ev):

   -44.1654 -44.1654 -22.2713 -22.2713 -22.1834 -22.1834 -22.1062 -22.1060
    -8.5705  -8.4433  -7.1272  -7.0039  -6.0006  -5.4048  -4.7994  -4.6680
    -4.5313  -3.7054   0.1945   0.8811   1.2139   1.2763   1.2962   1.4030
     1.4588   1.7452   2.2367   2.8992   2.9491   2.9522   3.1201   3.2338
     3.3327   3.8991   3.9202   3.9504   4.0413   4.1572   4.4378   4.5324
     4.7779   4.9876   5.7209   5.9861   6.0417   6.2098   6.2907   6.6682
     6.8416   7.2112

          k =-2.0325 0.0000 0.1485 ( 36456 PWs)   bands (ev):

   -44.1654 -44.1654 -22.2713 -22.2713 -22.1834 -22.1834 -22.1062 -22.1060
    -8.5537  -8.4641  -7.1063  -7.0195  -5.9404  -5.5411  -4.7803  -4.6875
    -4.3661  -3.8047   0.2813   0.9037   1.0118   1.2905   1.3085   1.4107
     1.4501   1.8637   2.1115   2.9077   2.9429   2.9890   3.1443   3.2489
     3.3967   3.9246   3.9676   3.9942   4.0854   4.1402   4.2943   4.6333
     4.7018   4.7634   5.9423   5.9716   6.0165   6.2678   6.3996   6.5538
     6.7064   7.0117

          k =-2.0325 0.0000-0.2971 ( 36460 PWs)   bands (ev):

   -44.1654 -44.1654 -22.2713 -22.2713 -22.1834 -22.1834 -22.1061 -22.1061
    -8.5108  -8.5108  -7.0603  -7.0603  -5.7710  -5.7710  -4.7342  -4.7342
    -4.0601  -4.0601   0.5315   0.5315   1.2635   1.2635   1.4218   1.4218
     1.4299   1.4299   2.5897   2.5897   2.9265   2.9265   3.1843   3.1843
     3.8470   3.8470   4.0168   4.0168   4.1182   4.1182   4.2953   4.2953
     4.7178   4.7178   5.9656   5.9656   6.2824   6.2824   6.4593   6.4593
     6.6766   6.6766

     the Fermi energy is     5.2384 ev

!    total energy              =   -4240.90083224 Ry

     total all-electron energy =   -150287.594527 Ry
     estimated scf accuracy    <          9.9E-11 Ry
     smearing contrib. (-TS)   =       0.00000000 Ry
     internal energy E=F+TS    =   -4240.90083224 Ry

     The total energy is F=E-TS. E is the sum of the following terms:
     one-electron contribution =    -169.53674328 Ry
     hartree contribution      =     118.19774914 Ry
     xc contribution           =    -201.69496109 Ry
     ewald contribution        =    -220.30992848 Ry
     one-center paw contrib.   =   -3767.55694852 Ry

     convergence has been achieved in  15 iterations

     Forces acting on atoms (cartesian axes, Ry/au):

     atom    1 type  1   force =     0.00000000    0.02752348    0.00000000
     atom    2 type  1   force =     0.00000000   -0.02752348    0.00000000
     atom    3 type  2   force =     0.00000000   -0.00049317    0.00000000
     atom    4 type  2   force =     0.00000000    0.00049317    0.00000000
     atom    5 type  2   force =     0.00000000   -0.00645074   -0.00495519
     atom    6 type  2   force =     0.00000000    0.00645074    0.00495519
     atom    7 type  2   force =     0.00000000   -0.00645074    0.00495519
     atom    8 type  2   force =     0.00000000    0.00645074   -0.00495519
     atom    9 type  2   force =     0.00000000   -0.05501082   -0.06763828
     atom   10 type  2   force =     0.00000000    0.05501082    0.06763828
     atom   11 type  2   force =     0.00000000   -0.05501082    0.06763828
     atom   12 type  2   force =    -0.00000000    0.05501082   -0.06763828

     Total force =     0.179401     Total SCF correction =     0.000014


     Computing stress (Cartesian axis) and pressure

          total   stress  (Ry/bohr**3)                   (kbar)     P=       16.32
   0.00014476   0.00000000   0.00000000           21.29        0.00        0.00
   0.00000000   0.00005012   0.00000000            0.00        7.37        0.00
   0.00000000   0.00000000   0.00013798            0.00        0.00       20.30

 
     init_run     :     19.49s CPU     19.98s WALL (       1 calls)
     electrons    :    837.74s CPU    847.32s WALL (       1 calls)
     forces       :      6.97s CPU      7.20s WALL (       1 calls)
     stress       :     42.96s CPU     43.60s WALL (       1 calls)

     Called by init_run:
     wfcinit      :     15.04s CPU     15.20s WALL (       1 calls)
     potinit      :      1.46s CPU      1.51s WALL (       1 calls)
     hinit0       :      1.72s CPU      1.77s WALL (       1 calls)

     Called by electrons:
     c_bands      :    700.50s CPU    703.47s WALL (      16 calls)
     sum_band     :    114.76s CPU    118.35s WALL (      16 calls)
     v_of_rho     :      4.96s CPU      5.22s WALL (      16 calls)
     newd         :     12.66s CPU     15.60s WALL (      16 calls)
     PAW_pot      :      5.17s CPU      5.17s WALL (      16 calls)
     mix_rho      :      0.71s CPU      0.72s WALL (      16 calls)

     Called by c_bands:
     init_us_2    :     10.14s CPU     10.19s WALL (    2205 calls)
     cegterg      :    634.06s CPU    636.60s WALL (    1008 calls)

     Called by *egterg:
     cdiaghg      :     24.37s CPU     24.44s WALL (    7077 calls)
     h_psi        :    487.66s CPU    490.04s WALL (    7203 calls)
     s_psi        :     39.64s CPU     39.70s WALL (    7203 calls)
     g_psi        :      1.75s CPU      1.76s WALL (    6132 calls)

     Called by h_psi:
     h_psi:calbec :     34.05s CPU     34.12s WALL (    7203 calls)
     vloc_psi     :    411.46s CPU    413.63s WALL (    7203 calls)
     add_vuspsi   :     39.38s CPU     39.45s WALL (    7203 calls)

     General routines
     calbec       :     44.84s CPU     44.94s WALL (    8526 calls)
     fft          :      2.94s CPU      3.06s WALL (     232 calls)
     ffts         :      0.07s CPU      0.07s WALL (      32 calls)
     fftw         :    378.45s CPU    380.38s WALL (  375406 calls)
     interpolate  :      0.26s CPU      0.26s WALL (      16 calls)
 
     Parallel routines
 
     PWSCF        :  15m 7.42s CPU  15m18.45s WALL

 
   This run was terminated on:  15:31:57  19Nov2021            

=------------------------------------------------------------------------------=
   JOB DONE.
=------------------------------------------------------------------------------=
