
     Program PWSCF v.6.8 starts on 19Nov2021 at 15:17:38 

     This program is part of the open-source Quantum ESPRESSO suite
     for quantum simulation of materials; please cite
         "P. Giannozzi et al., J. Phys.:Condens. Matter 21 395502 (2009);
         "P. Giannozzi et al., J. Phys.:Condens. Matter 29 465901 (2017);
         "P. Giannozzi et al., J. Chem. Phys. 152 154105 (2020);
          URL http://www.quantum-espresso.org", 
     in publications or presentations arising from this work. More details at
     http://www.quantum-espresso.org/quote

     Parallel version (MPI), running on    10 processors

     MPI processes distributed on     1 nodes
     R & G space division:  proc/nbgrp/npool/nimage =      10
     70534 MiB available memory on the printing compute node when the environment starts
 
     Waiting for input...
     Reading input from standard input

     Current dimensions of program PWSCF are:
     Max number of different atomic species (ntypx) = 10
     Max number of k-points (npk) =  40000
     Max angular momentum in pseudopotentials (lmaxx) =  4
     file Zr.pbe-spn-kjpaw_psl.1.0.0.UPF: wavefunction(s)  4S 4P renormalized
     file Te.pbe-n-kjpaw_psl.1.0.0.UPF: wavefunction(s)  5S 5P renormalized
     Message from routine setup:
     using ibrav=0 with symmetry is DISCOURAGED, use correct ibrav instead

     Subspace diagonalization in iterative solution of the eigenvalue problem:
     a serial algorithm will be used

 
     Parallelization info
     --------------------
     sticks:   dense  smooth     PW     G-vecs:    dense   smooth      PW
     Min         734     293     87               115340    29174    4753
     Max         735     295     88               115345    29176    4760
     Sum        7345    2937    873              1153415   291749   47557
 
     Using Slab Decomposition
 


     bravais-lattice index     =            0
     lattice parameter (alat)  =      15.5510  a.u.
     unit-cell volume          =    3018.5011 (a.u.)^3
     number of atoms/cell      =           12
     number of atomic types    =            2
     number of electrons       =        84.00
     number of Kohn-Sham states=           50
     kinetic-energy cutoff     =      80.0000  Ry
     charge density cutoff     =     800.0000  Ry
     scf convergence threshold =      1.0E-10
     mixing beta               =       0.7000
     number of iterations used =            8  plain     mixing
     Exchange-correlation= SLA  PW   PBX  PBC
                           (   1   4   3   4   0   0   0)

     celldm(1)=  15.551040  celldm(2)=   0.000000  celldm(3)=   0.000000
     celldm(4)=   0.000000  celldm(5)=   0.000000  celldm(6)=   0.000000

     crystal axes: (cart. coord. in units of alat)
               a(1) = (   0.246007  -0.969268   0.000000 )  
               a(2) = (   0.246007   0.969268   0.000000 )  
               a(3) = (   0.000000   0.000000   1.683031 )  

     reciprocal axes: (cart. coord. in units 2 pi/alat)
               b(1) = (  2.032465 -0.515853  0.000000 )  
               b(2) = (  2.032465  0.515853  0.000000 )  
               b(3) = (  0.000000  0.000000  0.594166 )  


     PseudoPot. # 1 for Zr read from file:
     pseudo/Zr.pbe-spn-kjpaw_psl.1.0.0.UPF
     MD5 check sum: 02112c41713a0468aff2bb39ef194e36
     Pseudo is Projector augmented-wave + core cor, Zval = 12.0
     Generated using &quot;atomic&quot; code by A. Dal Corso  v.6.2.2
     Shape of augmentation charge: PSQ
     Using radial grid of 1225 points,  6 beta functions with: 
                l(1) =   0
                l(2) =   0
                l(3) =   1
                l(4) =   1
                l(5) =   2
                l(6) =   2
     Q(r) pseudized with 0 coefficients 


     PseudoPot. # 2 for Te read from file:
     pseudo/Te.pbe-n-kjpaw_psl.1.0.0.UPF
     MD5 check sum: 66247bff2bd9dbf220fbb0bf5ab56e9d
     Pseudo is Projector augmented-wave + core cor, Zval =  6.0
     Generated using &quot;atomic&quot; code by A. Dal Corso  v.6.3
     Shape of augmentation charge: PSQ
     Using radial grid of 1245 points,  6 beta functions with: 
                l(1) =   0
                l(2) =   0
                l(3) =   1
                l(4) =   1
                l(5) =   2
                l(6) =   2
     Q(r) pseudized with 0 coefficients 


     atomic species   valence    mass     pseudopotential
        Zr            12.00    91.22000     Zr( 1.00)
        Te             6.00   127.60000     Te( 1.00)

      8 Sym. Ops., with inversion, found ( 4 have fractional translation)



   Cartesian axes

     site n.     atom                  positions (alat units)
         1           Zr  tau(   1) = (   0.0000000   0.6083862   0.4207578  )
         2           Zr  tau(   2) = (   0.2460067   0.3608820   1.2622733  )
         3           Te  tau(   3) = (   0.2460067   0.3343042   0.4207578  )
         4           Te  tau(   4) = (   0.0000000   0.6349639   1.2622733  )
         5           Te  tau(   5) = (   0.2460067   0.8085609   0.2512000  )
         6           Te  tau(   6) = (   0.0000000   0.1607072   1.4318311  )
         7           Te  tau(   7) = (   0.2460067   0.8085609   0.5903156  )
         8           Te  tau(   8) = (   0.0000000   0.1607072   1.0927155  )
         9           Te  tau(   9) = (   0.0000000   0.4100240   0.7262381  )
        10           Te  tau(  10) = (   0.2460067   0.5592441   0.9567929  )
        11           Te  tau(  11) = (   0.0000000   0.4100240   0.1152774  )
        12           Te  tau(  12) = (   0.2460067   0.5592441   1.5677536  )

     number of k points=    63  Methfessel-Paxton smearing, width (Ry)=  0.0030
                       cart. coord. in units 2pi/alat
        k(    1) = (   0.0000000   0.0000000   0.0000000), wk =   0.0078125
        k(    2) = (   0.0000000   0.0000000   0.1485415), wk =   0.0156250
        k(    3) = (   0.0000000   0.0000000  -0.2970830), wk =   0.0078125
        k(    4) = (   0.2540581   0.0644816   0.0000000), wk =   0.0312500
        k(    5) = (   0.2540581   0.0644816   0.1485415), wk =   0.0625000
        k(    6) = (   0.2540581   0.0644816  -0.2970830), wk =   0.0312500
        k(    7) = (   0.5081162   0.1289633   0.0000000), wk =   0.0312500
        k(    8) = (   0.5081162   0.1289633   0.1485415), wk =   0.0625000
        k(    9) = (   0.5081162   0.1289633  -0.2970830), wk =   0.0312500
        k(   10) = (   0.7621743   0.1934449   0.0000000), wk =   0.0312500
        k(   11) = (   0.7621743   0.1934449   0.1485415), wk =   0.0625000
        k(   12) = (   0.7621743   0.1934449  -0.2970830), wk =   0.0312500
        k(   13) = (  -1.0162324  -0.2579266   0.0000000), wk =   0.0156250
        k(   14) = (  -1.0162324  -0.2579266   0.1485415), wk =   0.0312500
        k(   15) = (  -1.0162324  -0.2579266  -0.2970830), wk =   0.0156250
        k(   16) = (   0.5081162   0.0000000   0.0000000), wk =   0.0156250
        k(   17) = (   0.5081162   0.0000000   0.1485415), wk =   0.0312500
        k(   18) = (   0.5081162   0.0000000  -0.2970830), wk =   0.0156250
        k(   19) = (   0.7621743   0.0644816   0.0000000), wk =   0.0312500
        k(   20) = (   0.7621743   0.0644816   0.1485415), wk =   0.0625000
        k(   21) = (   0.7621743   0.0644816  -0.2970830), wk =   0.0312500
        k(   22) = (   1.0162324   0.1289633   0.0000000), wk =   0.0312500
        k(   23) = (   1.0162324   0.1289633   0.1485415), wk =   0.0625000
        k(   24) = (   1.0162324   0.1289633  -0.2970830), wk =   0.0312500
        k(   25) = (  -0.7621743  -0.3224082   0.0000000), wk =   0.0312500
        k(   26) = (  -0.7621743  -0.3224082   0.1485415), wk =   0.0625000
        k(   27) = (  -0.7621743  -0.3224082  -0.2970830), wk =   0.0312500
        k(   28) = (  -0.5081162  -0.2579266   0.0000000), wk =   0.0312500
        k(   29) = (  -0.5081162  -0.2579266   0.1485415), wk =   0.0625000
        k(   30) = (  -0.5081162  -0.2579266  -0.2970830), wk =   0.0312500
        k(   31) = (  -0.2540581  -0.1934449   0.0000000), wk =   0.0312500
        k(   32) = (  -0.2540581  -0.1934449   0.1485415), wk =   0.0625000
        k(   33) = (  -0.2540581  -0.1934449  -0.2970830), wk =   0.0312500
        k(   34) = (   0.0000000  -0.1289633   0.0000000), wk =   0.0156250
        k(   35) = (   0.0000000  -0.1289633   0.1485415), wk =   0.0312500
        k(   36) = (   0.0000000  -0.1289633  -0.2970830), wk =   0.0156250
        k(   37) = (   1.0162324   0.0000000   0.0000000), wk =   0.0156250
        k(   38) = (   1.0162324   0.0000000   0.1485415), wk =   0.0312500
        k(   39) = (   1.0162324   0.0000000  -0.2970830), wk =   0.0156250
        k(   40) = (   1.2702905   0.0644816   0.0000000), wk =   0.0312500
        k(   41) = (   1.2702905   0.0644816   0.1485415), wk =   0.0625000
        k(   42) = (   1.2702905   0.0644816  -0.2970830), wk =   0.0312500
        k(   43) = (  -0.5081162  -0.3868899   0.0000000), wk =   0.0312500
        k(   44) = (  -0.5081162  -0.3868899   0.1485415), wk =   0.0625000
        k(   45) = (  -0.5081162  -0.3868899  -0.2970830), wk =   0.0312500
        k(   46) = (  -0.2540581  -0.3224082   0.0000000), wk =   0.0312500
        k(   47) = (  -0.2540581  -0.3224082   0.1485415), wk =   0.0625000
        k(   48) = (  -0.2540581  -0.3224082  -0.2970830), wk =   0.0312500
        k(   49) = (   0.0000000  -0.2579266   0.0000000), wk =   0.0156250
        k(   50) = (   0.0000000  -0.2579266   0.1485415), wk =   0.0312500
        k(   51) = (   0.0000000  -0.2579266  -0.2970830), wk =   0.0156250
        k(   52) = (   1.5243485   0.0000000   0.0000000), wk =   0.0156250
        k(   53) = (   1.5243485   0.0000000   0.1485415), wk =   0.0312500
        k(   54) = (   1.5243485   0.0000000  -0.2970830), wk =   0.0156250
        k(   55) = (  -0.2540581  -0.4513715   0.0000000), wk =   0.0312500
        k(   56) = (  -0.2540581  -0.4513715   0.1485415), wk =   0.0625000
        k(   57) = (  -0.2540581  -0.4513715  -0.2970830), wk =   0.0312500
        k(   58) = (   0.0000000  -0.3868899   0.0000000), wk =   0.0156250
        k(   59) = (   0.0000000  -0.3868899   0.1485415), wk =   0.0312500
        k(   60) = (   0.0000000  -0.3868899  -0.2970830), wk =   0.0156250
        k(   61) = (  -2.0324647   0.0000000   0.0000000), wk =   0.0078125
        k(   62) = (  -2.0324647   0.0000000   0.1485415), wk =   0.0156250
        k(   63) = (  -2.0324647   0.0000000  -0.2970830), wk =   0.0078125

     Dense  grid:  1153415 G-vectors     FFT dimensions: ( 144, 144, 240)

     Smooth grid:   291749 G-vectors     FFT dimensions: (  90,  90, 150)

     Estimated max dynamical RAM per process >     657.19 MB

     Estimated total dynamical RAM >       6.42 GB

     Initial potential from superposition of free atoms

     starting charge   83.99353, renormalised to   84.00000
     Starting wfcs are   66 randomized atomic wfcs
     Checking if some PAW data can be deallocated... 

     total cpu time spent up to now is       21.6 secs

     Self-consistent Calculation

     iteration #  1     ecut=    80.00 Ry     beta= 0.70
     Davidson diagonalization with overlap
     ethr =  1.00E-02,  avg # of iterations =  2.0

     Threshold (ethr) on eigenvalues was too large:
     Diagonalizing with lowered threshold

     Davidson diagonalization with overlap
     ethr =  3.95E-04,  avg # of iterations =  4.0

     total cpu time spent up to now is      102.3 secs

     total energy              =   -4240.72842612 Ry
     estimated scf accuracy    <       0.42988741 Ry

     iteration #  2     ecut=    80.00 Ry     beta= 0.70
     Davidson diagonalization with overlap
     ethr =  5.12E-04,  avg # of iterations =  7.5

     total cpu time spent up to now is      161.4 secs

     total energy              =   -4240.63284580 Ry
     estimated scf accuracy    <       2.12189342 Ry

     iteration #  3     ecut=    80.00 Ry     beta= 0.70
     Davidson diagonalization with overlap
     ethr =  5.12E-04,  avg # of iterations =  5.2

     total cpu time spent up to now is      211.5 secs

     total energy              =   -4240.93012179 Ry
     estimated scf accuracy    <       0.01477987 Ry

     iteration #  4     ecut=    80.00 Ry     beta= 0.70
     Davidson diagonalization with overlap
     c_bands:  2 eigenvalues not converged
     c_bands:  1 eigenvalues not converged
     c_bands:  1 eigenvalues not converged
     c_bands:  2 eigenvalues not converged
     c_bands:  2 eigenvalues not converged
     c_bands:  1 eigenvalues not converged
     c_bands:  1 eigenvalues not converged
     c_bands:  1 eigenvalues not converged
     c_bands:  2 eigenvalues not converged
     c_bands:  1 eigenvalues not converged
     c_bands:  1 eigenvalues not converged
     c_bands:  1 eigenvalues not converged
     c_bands:  1 eigenvalues not converged
     c_bands:  1 eigenvalues not converged
     c_bands:  1 eigenvalues not converged
     c_bands:  1 eigenvalues not converged
     c_bands:  1 eigenvalues not converged
     ethr =  1.76E-05,  avg # of iterations = 16.7

     total cpu time spent up to now is      305.3 secs

     total energy              =   -4240.94510132 Ry
     estimated scf accuracy    <       0.08790363 Ry

     iteration #  5     ecut=    80.00 Ry     beta= 0.70
     Davidson diagonalization with overlap
     ethr =  1.76E-05,  avg # of iterations =  6.4

     total cpu time spent up to now is      353.0 secs

     total energy              =   -4240.94731451 Ry
     estimated scf accuracy    <       0.01791535 Ry

     iteration #  6     ecut=    80.00 Ry     beta= 0.70
     Davidson diagonalization with overlap
     ethr =  1.76E-05,  avg # of iterations =  3.5

     total cpu time spent up to now is      393.0 secs

     total energy              =   -4240.94868470 Ry
     estimated scf accuracy    <       0.00187783 Ry

     iteration #  7     ecut=    80.00 Ry     beta= 0.70
     Davidson diagonalization with overlap
     c_bands:  1 eigenvalues not converged
     c_bands:  1 eigenvalues not converged
     ethr =  2.24E-06,  avg # of iterations = 12.9

     total cpu time spent up to now is      464.5 secs

     total energy              =   -4240.94975986 Ry
     estimated scf accuracy    <       0.00228319 Ry

     iteration #  8     ecut=    80.00 Ry     beta= 0.70
     Davidson diagonalization with overlap
     ethr =  2.24E-06,  avg # of iterations =  2.4

     total cpu time spent up to now is      501.6 secs

     total energy              =   -4240.94979120 Ry
     estimated scf accuracy    <       0.00041293 Ry

     iteration #  9     ecut=    80.00 Ry     beta= 0.70
     Davidson diagonalization with overlap
     ethr =  4.92E-07,  avg # of iterations =  6.3

     total cpu time spent up to now is      548.1 secs

     total energy              =   -4240.94989828 Ry
     estimated scf accuracy    <       0.00000721 Ry

     iteration # 10     ecut=    80.00 Ry     beta= 0.70
     Davidson diagonalization with overlap
     c_bands:  1 eigenvalues not converged
     ethr =  8.58E-09,  avg # of iterations =  9.6

     total cpu time spent up to now is      615.2 secs

     total energy              =   -4240.94990933 Ry
     estimated scf accuracy    <       0.00001504 Ry

     iteration # 11     ecut=    80.00 Ry     beta= 0.70
     Davidson diagonalization with overlap
     ethr =  8.58E-09,  avg # of iterations =  4.2

     total cpu time spent up to now is      657.0 secs

     total energy              =   -4240.94991144 Ry
     estimated scf accuracy    <       0.00000017 Ry

     iteration # 12     ecut=    80.00 Ry     beta= 0.70
     Davidson diagonalization with overlap
     ethr =  2.07E-10,  avg # of iterations =  9.1

     total cpu time spent up to now is      724.2 secs

     total energy              =   -4240.94991166 Ry
     estimated scf accuracy    <       0.00000019 Ry

     iteration # 13     ecut=    80.00 Ry     beta= 0.70
     Davidson diagonalization with overlap
     ethr =  2.07E-10,  avg # of iterations =  2.0

     total cpu time spent up to now is      761.0 secs

     total energy              =   -4240.94991167 Ry
     estimated scf accuracy    <       0.00000002 Ry

     iteration # 14     ecut=    80.00 Ry     beta= 0.70
     Davidson diagonalization with overlap
     ethr =  1.80E-11,  avg # of iterations =  8.5

     total cpu time spent up to now is      822.9 secs

     total energy              =   -4240.94991168 Ry
     estimated scf accuracy    <       0.00000003 Ry

     iteration # 15     ecut=    80.00 Ry     beta= 0.70
     Davidson diagonalization with overlap
     ethr =  1.80E-11,  avg # of iterations =  2.0

     total cpu time spent up to now is      858.3 secs

     total energy              =   -4240.94991168 Ry
     estimated scf accuracy    <          8.0E-09 Ry

     iteration # 16     ecut=    80.00 Ry     beta= 0.70
     Davidson diagonalization with overlap
     ethr =  9.58E-12,  avg # of iterations =  4.9

     total cpu time spent up to now is      900.4 secs

     total energy              =   -4240.94991168 Ry
     estimated scf accuracy    <          1.0E-10 Ry

     iteration # 17     ecut=    80.00 Ry     beta= 0.70
     Davidson diagonalization with overlap
     ethr =  1.20E-13,  avg # of iterations = 12.2

     total cpu time spent up to now is      988.6 secs

     total energy              =   -4240.94991168 Ry
     estimated scf accuracy    <          2.0E-09 Ry

     iteration # 18     ecut=    80.00 Ry     beta= 0.70
     Davidson diagonalization with overlap
     ethr =  1.20E-13,  avg # of iterations =  5.3

     total cpu time spent up to now is     1036.9 secs

     total energy              =   -4240.94991168 Ry
     estimated scf accuracy    <          6.4E-10 Ry

     iteration # 19     ecut=    80.00 Ry     beta= 0.70
     Davidson diagonalization with overlap
     ethr =  1.20E-13,  avg # of iterations =  5.5

     total cpu time spent up to now is     1087.9 secs

     End of self-consistent calculation

          k = 0.0000 0.0000 0.0000 ( 36359 PWs)   bands (ev):

   -44.1421 -44.1421 -22.2764 -22.2764 -22.1783 -22.1783 -22.0671 -22.0670
    -7.7355  -7.2373  -7.1425  -6.8147  -6.4274  -5.3787  -5.0271  -4.8716
    -4.8186  -3.8526   0.3958   0.7294   0.7544   1.0908   1.5132   1.5266
     2.3799   2.4041   2.6859   2.8387   2.9856   3.0140   3.1762   3.4708
     3.6259   3.7071   3.9080   4.0556   4.1807   4.3179   4.3288   4.6456
     4.9747   5.5354   5.6130   5.7238   5.8395   5.9885   6.2823   6.8293
     6.9550   7.2773

          k = 0.0000 0.0000 0.1485 ( 36415 PWs)   bands (ev):

   -44.1421 -44.1421 -22.2764 -22.2764 -22.1783 -22.1783 -22.0671 -22.0670
    -7.6973  -7.4112  -6.9885  -6.8282  -6.3371  -5.6886  -4.8811  -4.8286
    -4.6860  -3.9697   0.4508   0.7665   0.9068   1.0359   1.0590   1.9649
     2.0895   2.4084   2.6048   2.8922   2.9766   3.1190   3.3719   3.3806
     3.6773   3.7836   3.8951   4.0523   4.1260   4.3374   4.3444   4.6542
     4.8405   5.0320   5.7639   5.9609   5.9886   6.0039   6.6161   6.6198
     6.7825   7.2356

          k = 0.0000 0.0000-0.2971 ( 36410 PWs)   bands (ev):

   -44.1421 -44.1421 -22.2764 -22.2764 -22.1783 -22.1783 -22.0671 -22.0671
    -7.5856  -7.5856  -6.8764  -6.8764  -6.0695  -6.0695  -4.8529  -4.8529
    -4.2788  -4.2788   0.6524   0.6524   0.8914   0.8914   1.3951   1.3951
     2.4894   2.4894   2.6723   2.6723   2.9475   2.9475   3.4353   3.4353
     3.8627   3.8627   3.9642   3.9642   4.3359   4.3359   4.4036   4.4036
     4.7016   4.7016   5.9556   5.9556   6.2231   6.2231   6.3915   6.3915
     7.0851   7.0851

          k = 0.2541 0.0645 0.0000 ( 36396 PWs)   bands (ev):

   -44.1417 -44.1417 -22.2744 -22.2744 -22.1881 -22.1881 -22.0659 -22.0658
    -7.6202  -7.1298  -7.0668  -6.7678  -6.3657  -5.3376  -5.0289  -4.8297
    -4.7758  -3.9965   0.4827   0.8613   0.8865   1.2092   1.3498   1.3919
     1.8961   1.9478   2.1653   2.5466   2.5820   3.0878   3.3899   3.6972
     3.7176   3.7515   3.7776   3.7905   4.0105   4.2280   4.2516   4.2525
     4.4770   4.6364   5.7534   5.9813   6.2499   6.5578   6.6179   6.8175
     7.0055   7.1533

          k = 0.2541 0.0645 0.1485 ( 36423 PWs)   bands (ev):

   -44.1417 -44.1417 -22.2744 -22.2744 -22.1881 -22.1881 -22.0659 -22.0658
    -7.5830  -7.3048  -6.9191  -6.7798  -6.2707  -5.6340  -4.8586  -4.7879
    -4.6938  -4.0903   0.5252   0.9004   0.9661   0.9786   1.1612   1.5327
     1.8255   2.2669   2.3579   2.5332   2.5579   2.9354   3.2958   3.3188
     3.6075   3.7215   3.8931   3.9118   4.0138   4.1195   4.2708   4.3087
     4.6844   4.9489   5.8207   5.8729   6.1951   6.2690   6.4522   6.7055
     7.2419   7.3079

          k = 0.2541 0.0645-0.2971 ( 36436 PWs)   bands (ev):

   -44.1417 -44.1417 -22.2744 -22.2744 -22.1881 -22.1881 -22.0659 -22.0659
    -7.4741  -7.4741  -6.8219  -6.8219  -6.0024  -6.0024  -4.8175  -4.8175
    -4.3467  -4.3467   0.6837   0.6837   1.0008   1.0008   1.2304   1.2304
     2.2732   2.2732   2.4955   2.4955   2.6771   2.6771   3.1402   3.1402
     3.6105   3.6105   3.9005   3.9005   4.0708   4.0708   4.3098   4.3098
     5.1060   5.1060   5.7605   5.7605   6.1148   6.1148   6.4502   6.4502
     7.4303   7.4304

          k = 0.5081 0.1290 0.0000 ( 36499 PWs)   bands (ev):

   -44.1408 -44.1408 -22.2697 -22.2697 -22.2119 -22.2119 -22.0630 -22.0629
    -7.2946  -6.8885  -6.8188  -6.6400  -6.1708  -5.2529  -5.0910  -4.7200
    -4.6703  -4.4291   0.5659   0.5793   0.6837   1.2124   1.2474   1.5005
     1.6790   1.7470   2.0575   2.0690   2.1662   2.2666   2.3576   3.3222
     3.4054   3.4712   3.4925   3.5882   3.7690   3.8892   3.9095   4.1630
     4.5115   5.1876   5.4764   5.9842   5.9946   6.5658   6.5799   6.8956
     7.4220   7.5658

          k = 0.5081 0.1290 0.1485 ( 36476 PWs)   bands (ev):

   -44.1408 -44.1408 -22.2697 -22.2697 -22.2119 -22.2119 -22.0630 -22.0629
    -7.2609  -7.0184  -6.7328  -6.6484  -6.0696  -5.5026  -4.9073  -4.6987
    -4.6740  -4.4605   0.4991   0.6951   0.7991   1.0508   1.2460   1.4153
     1.4792   1.5981   2.0267   2.0874   2.3274   2.4984   2.8006   3.3457
     3.4044   3.4240   3.5035   3.5817   3.6751   3.7506   3.8463   4.2214
     4.3515   4.5445   6.0823   6.1396   6.2573   6.5694   6.6222   6.7636
     7.2609   7.4957

          k = 0.5081 0.1290-0.2971 ( 36466 PWs)   bands (ev):

   -44.1408 -44.1408 -22.2697 -22.2697 -22.2119 -22.2119 -22.0630 -22.0630
    -7.1637  -7.1637  -6.6757  -6.6757  -5.8174  -5.8174  -4.7721  -4.7721
    -4.5564  -4.5564   0.5849   0.5849   1.0654   1.0654   1.1759   1.1759
     1.3910   1.3910   2.0576   2.0576   2.7383   2.7383   3.1384   3.1384
     3.3790   3.3790   3.5511   3.5511   3.7010   3.7010   3.8235   3.8235
     4.3048   4.3048   6.3217   6.3217   6.5465   6.5465   6.8016   6.8016
     7.1101   7.1101

          k = 0.7622 0.1934 0.0000 ( 36521 PWs)   bands (ev):

   -44.1399 -44.1399 -22.2649 -22.2649 -22.2356 -22.2356 -22.0601 -22.0600
    -6.8768  -6.7285  -6.4032  -6.3457  -5.8486  -5.3379  -5.2444  -5.0810
    -4.5971  -4.5616   0.0124   0.1583   0.6006   1.0754   1.1012   1.2514
     1.4777   1.5991   1.9370   2.0113   2.2629   2.4077   2.4302   2.7712
     2.8322   3.2619   3.3206   3.4040   3.6288   3.6883   3.7347   3.7844
     3.9076   4.5638   5.8214   6.2457   6.3145   6.7742   6.7859   6.8856
     7.2553   7.5933

          k = 0.7622 0.1934 0.1485 ( 36503 PWs)   bands (ev):

   -44.1399 -44.1399 -22.2649 -22.2649 -22.2356 -22.2356 -22.0601 -22.0600
    -6.8566  -6.7511  -6.4031  -6.3687  -5.7691  -5.4291  -5.1997  -5.0986
    -4.5875  -4.5632   0.0614   0.2873   0.4721   0.9410   1.0802   1.2162
     1.4923   1.6437   1.8128   2.0724   2.1355   2.6327   2.6923   2.8106
     2.8752   3.1159   3.2717   3.3888   3.5139   3.6200   3.6571   3.9197
     3.9795   4.6148   5.5352   6.2965   6.6002   6.6698   6.8321   6.9408
     7.0315   7.5264

          k = 0.7622 0.1934-0.2971 ( 36522 PWs)   bands (ev):

   -44.1399 -44.1399 -22.2649 -22.2649 -22.2356 -22.2356 -22.0601 -22.0601
    -6.8053  -6.8053  -6.3954  -6.3954  -5.5988  -5.5988  -5.1433  -5.1433
    -4.5715  -4.5715   0.2268   0.2268   0.6232   0.6232   1.0775   1.0775
     1.5712   1.5712   2.0039   2.0039   2.3678   2.3678   2.8042   2.8042
     2.9946   2.9946   3.3568   3.3568   3.5853   3.5853   3.8371   3.8371
     4.1359   4.1359   6.0578   6.0578   6.4083   6.4083   6.9135   6.9135
     7.3668   7.3668

          k =-1.0162-0.2579 0.0000 ( 36506 PWs)   bands (ev):

   -44.1395 -44.1395 -22.2628 -22.2628 -22.2455 -22.2455 -22.0589 -22.0589
    -6.6998  -6.6798  -5.8791  -5.8680  -5.8057  -5.7962  -5.4231  -5.4225
    -4.5400  -4.5175   0.0358   0.0603   0.3721   0.3928   1.0116   1.0207
     1.4669   1.6716   2.2340   2.3766   2.3828   2.3846   2.7894   2.8107
     2.8162   2.8806   3.2389   3.2625   3.3093   3.4511   3.5538   3.6932
     3.7674   4.0084   6.4545   6.4800   6.5139   6.5955   6.9794   7.0637
     7.0737   7.0824

          k =-1.0162-0.2579 0.1485 ( 36506 PWs)   bands (ev):

   -44.1395 -44.1395 -22.2628 -22.2628 -22.2455 -22.2455 -22.0589 -22.0589
    -6.6962  -6.6820  -5.8956  -5.8872  -5.7892  -5.7833  -5.4171  -5.4168
    -4.5410  -4.5251  -0.0586  -0.0508   0.5963   0.6027   1.0170   1.0387
     1.4641   1.5899   1.9507   2.0380   2.3759   2.3916   2.7263   2.7266
     2.9445   3.0031   3.1363   3.2015   3.5529   3.5686   3.6930   3.7465
     4.0524   4.1162   5.9319   5.9445   6.4382   6.5128   7.0121   7.0441
     7.2766   7.3123

          k =-1.0162-0.2579-0.2971 ( 36528 PWs)   bands (ev):

   -44.1395 -44.1395 -22.2628 -22.2628 -22.2455 -22.2455 -22.0589 -22.0589
    -6.6883  -6.6883  -5.9051  -5.9051  -5.7756  -5.7756  -5.4110  -5.4110
    -4.5374  -4.5374  -0.1171  -0.1171   0.9017   0.9017   0.9393   0.9393
     1.5484   1.5484   1.6574   1.6574   2.3759   2.3759   2.7751   2.7751
     2.9258   2.9258   3.1701   3.1701   3.6195   3.6195   3.7916   3.7916
     4.4655   4.4655   5.4279   5.4279   6.3974   6.3974   7.0514   7.0514
     7.3620   7.3620

          k = 0.5081 0.0000 0.0000 ( 36503 PWs)   bands (ev):

   -44.1408 -44.1408 -22.2697 -22.2697 -22.2119 -22.2119 -22.0630 -22.0629
    -7.2997  -6.8900  -6.8197  -6.6342  -6.1668  -5.2535  -5.0878  -4.7151
    -4.6763  -4.4286   0.5673   0.5855   0.6774   1.1845   1.2424   1.4786
     1.6812   1.7515   2.0437   2.0960   2.1228   2.2672   2.3540   3.3075
     3.4281   3.4406   3.5506   3.5981   3.7751   3.8749   3.9576   4.2001
     4.5136   5.1859   5.4822   5.9698   6.0236   6.5263   6.5289   6.9310
     7.4436   7.5767

          k = 0.5081 0.0000 0.1485 ( 36453 PWs)   bands (ev):

   -44.1408 -44.1408 -22.2697 -22.2697 -22.2119 -22.2119 -22.0630 -22.0629
    -7.2659  -7.0221  -6.7299  -6.6428  -6.0674  -5.5030  -4.9020  -4.7006
    -4.6740  -4.4614   0.4992   0.6903   0.8023   1.0527   1.2239   1.4264
     1.4419   1.5872   2.0226   2.0943   2.3382   2.4642   2.7947   3.3342
     3.4087   3.4564   3.4988   3.5898   3.6703   3.8162   3.8393   4.2582
     4.3656   4.5415   6.0789   6.1523   6.2703   6.5195   6.5861   6.7950
     7.2843   7.5022

          k = 0.5081 0.0000-0.2971 ( 36452 PWs)   bands (ev):

   -44.1408 -44.1408 -22.2697 -22.2697 -22.2119 -22.2119 -22.0630 -22.0630
    -7.1684  -7.1684  -6.6704  -6.6704  -5.8171  -5.8171  -4.7680  -4.7680
    -4.5592  -4.5592   0.5813   0.5813   1.0654   1.0654   1.1924   1.1924
     1.3488   1.3488   2.0588   2.0588   2.7294   2.7294   3.1220   3.1220
     3.3759   3.3759   3.5841   3.5841   3.7223   3.7223   3.8254   3.8254
     4.3271   4.3271   6.3375   6.3375   6.5109   6.5109   6.8180   6.8180
     7.1117   7.1117

          k = 0.7622 0.0645 0.0000 ( 36505 PWs)   bands (ev):

   -44.1399 -44.1399 -22.2649 -22.2649 -22.2356 -22.2356 -22.0601 -22.0600
    -6.8859  -6.7265  -6.3944  -6.3477  -5.8482  -5.3340  -5.2452  -5.0805
    -4.5890  -4.5708   0.0074   0.1692   0.6208   1.0890   1.1073   1.2657
     1.4379   1.5585   1.9119   2.0274   2.2506   2.3608   2.4121   2.7444
     2.8192   3.3148   3.3459   3.4225   3.6186   3.6458   3.7579   3.8265
     3.9255   4.6025   5.8194   6.2550   6.2876   6.7444   6.8432   6.8435
     7.2748   7.6018

          k = 0.7622 0.0645 0.1485 ( 36509 PWs)   bands (ev):

   -44.1399 -44.1399 -22.2649 -22.2649 -22.2356 -22.2356 -22.0601 -22.0600
    -6.8649  -6.7519  -6.3945  -6.3671  -5.7697  -5.4287  -5.1977  -5.0977
    -4.5819  -4.5697   0.0621   0.2915   0.4816   0.9539   1.0851   1.2317
     1.4573   1.6437   1.8387   1.9998   2.0654   2.6526   2.6748   2.7898
     2.8600   3.1177   3.3328   3.4017   3.4919   3.6305   3.6728   3.9389
     4.0181   4.6131   5.5613   6.2775   6.6081   6.6659   6.8481   6.9375
     7.0081   7.5452

          k = 0.7622 0.0645-0.2971 ( 36472 PWs)   bands (ev):

   -44.1399 -44.1399 -22.2649 -22.2649 -22.2356 -22.2356 -22.0601 -22.0601
    -6.8108  -6.8108  -6.3888  -6.3888  -5.5999  -5.5999  -5.1414  -5.1414
    -4.5719  -4.5719   0.2324   0.2324   0.6176   0.6176   1.1017   1.1017
     1.5647   1.5647   1.9553   1.9553   2.3367   2.3367   2.8027   2.8027
     2.9852   2.9852   3.4198   3.4198   3.5821   3.5821   3.8253   3.8253
     4.1584   4.1584   6.0826   6.0826   6.4095   6.4095   6.8800   6.8800
     7.3938   7.3938

          k = 1.0162 0.1290 0.0000 ( 36514 PWs)   bands (ev):

   -44.1395 -44.1395 -22.2628 -22.2628 -22.2455 -22.2455 -22.0589 -22.0589
    -6.6998  -6.6798  -5.8788  -5.8683  -5.8058  -5.7962  -5.4232  -5.4224
    -4.5400  -4.5175   0.0299   0.0663   0.3672   0.3979   1.0059   1.0277
     1.4724   1.6628   2.2353   2.3708   2.3726   2.3897   2.7876   2.8077
     2.8363   2.8865   3.2432   3.2542   3.3065   3.4421   3.5806   3.6794
     3.7489   4.0208   6.4466   6.4887   6.5090   6.6015   6.9942   7.0656
     7.0734   7.0758

          k = 1.0162 0.1290 0.1485 ( 36524 PWs)   bands (ev):

   -44.1395 -44.1395 -22.2628 -22.2628 -22.2455 -22.2455 -22.0589 -22.0589
    -6.6962  -6.6820  -5.8954  -5.8873  -5.7891  -5.7833  -5.4173  -5.4166
    -4.5410  -4.5251  -0.0607  -0.0490   0.5969   0.6027   1.0204   1.0359
     1.4689   1.5856   1.9615   2.0231   2.3720   2.3870   2.6812   2.7792
     2.9604   3.0163   3.1178   3.1977   3.5326   3.6058   3.6854   3.7309
     4.0365   4.1356   5.9227   5.9566   6.4353   6.5153   7.0186   7.0428
     7.2819   7.3074

          k = 1.0162 0.1290-0.2971 ( 36516 PWs)   bands (ev):

   -44.1395 -44.1395 -22.2628 -22.2628 -22.2455 -22.2455 -22.0589 -22.0589
    -6.6883  -6.6883  -5.9051  -5.9051  -5.7756  -5.7756  -5.4111  -5.4111
    -4.5374  -4.5374  -0.1172  -0.1172   0.9011   0.9011   0.9406   0.9406
     1.5488   1.5488   1.6583   1.6583   2.3662   2.3662   2.7594   2.7594
     2.9759   2.9759   3.1431   3.1431   3.6244   3.6244   3.7860   3.7860
     4.4659   4.4659   5.4300   5.4300   6.3969   6.3969   7.0534   7.0534
     7.3623   7.3623

          k =-0.7622-0.3224 0.0000 ( 36511 PWs)   bands (ev):

   -44.1399 -44.1399 -22.2649 -22.2649 -22.2356 -22.2356 -22.0601 -22.0600
    -6.8626  -6.7327  -6.4156  -6.3430  -5.8493  -5.3434  -5.2433  -5.0818
    -4.6037  -4.5535   0.0195   0.1432   0.5731   1.0460   1.1183   1.2332
     1.5007   1.6635   1.9894   1.9906   2.3062   2.4375   2.4559   2.8080
     2.8474   3.1912   3.2995   3.4165   3.5865   3.6598   3.7167   3.8256
     3.8677   4.4999   5.8245   6.2357   6.3587   6.7039   6.8199   6.9522
     7.2201   7.5849

          k =-0.7622-0.3224 0.1485 ( 36492 PWs)   bands (ev):

   -44.1399 -44.1399 -22.2649 -22.2649 -22.2356 -22.2356 -22.0601 -22.0600
    -6.8438  -6.7507  -6.4153  -6.3713  -5.7683  -5.4298  -5.2024  -5.0999
    -4.5920  -4.5575   0.0595   0.2831   0.4578   0.9214   1.0851   1.1947
     1.5347   1.6418   1.7931   2.1784   2.2273   2.6150   2.7013   2.8350
     2.8915   3.1352   3.1937   3.3748   3.4788   3.6174   3.6679   3.8838
     3.9230   4.6159   5.5003   6.3271   6.5758   6.6724   6.8097   6.9762
     7.0586   7.4919

          k =-0.7622-0.3224-0.2971 ( 36508 PWs)   bands (ev):

   -44.1399 -44.1399 -22.2649 -22.2649 -22.2356 -22.2356 -22.0601 -22.0601
    -6.7971  -6.7971  -6.4051  -6.4051  -5.5972  -5.5972  -5.1460  -5.1460
    -4.5710  -4.5710   0.2188   0.2188   0.6309   0.6309   1.0493   1.0493
     1.5788   1.5788   2.0583   2.0583   2.4314   2.4314   2.8080   2.8080
     3.0078   3.0078   3.2680   3.2680   3.5863   3.5863   3.8411   3.8411
     4.1096   4.1096   6.0252   6.0252   6.4054   6.4054   6.9697   6.9697
     7.3209   7.3209

          k =-0.5081-0.2579 0.0000 ( 36480 PWs)   bands (ev):

   -44.1408 -44.1408 -22.2697 -22.2697 -22.2119 -22.2119 -22.0630 -22.0629
    -7.2818  -6.8856  -6.8167  -6.6535  -6.1806  -5.2516  -5.0987  -4.7275
    -4.6600  -4.4301   0.5649   0.5670   0.6897   1.2588   1.2949   1.5528
     1.6783   1.7384   2.0391   2.0931   2.2186   2.2715   2.3632   3.3558
     3.3721   3.4051   3.5057   3.5205   3.7414   3.8345   3.9011   4.0882
     4.5028   5.1896   5.4648   5.8964   6.0499   6.6651   6.7003   6.8110
     7.3599   7.5423

          k =-0.5081-0.2579 0.1485 ( 36485 PWs)   bands (ev):

   -44.1408 -44.1408 -22.2697 -22.2697 -22.2119 -22.2119 -22.0630 -22.0629
    -7.2483  -7.0093  -6.7405  -6.6621  -6.0751  -5.5018  -4.9195  -4.6952
    -4.6733  -4.4583   0.4994   0.7042   0.7906   1.0467   1.3061   1.4126
     1.5467   1.6309   2.0312   2.0775   2.3143   2.5614   2.8146   3.3253
     3.3733   3.4106   3.5077   3.5362   3.6377   3.7080   3.8337   4.1449
     4.3093   4.5497   6.0673   6.1249   6.2343   6.6717   6.6981   6.7227
     7.1994   7.4830

          k =-0.5081-0.2579-0.2971 ( 36478 PWs)   bands (ev):

   -44.1408 -44.1408 -22.2697 -22.2697 -22.2119 -22.2119 -22.0630 -22.0630
    -7.1521  -7.1521  -6.6888  -6.6888  -5.8180  -5.8180  -4.7816  -4.7816
    -4.5500  -4.5500   0.5931   0.5931   1.0649   1.0649   1.1505   1.1505
     1.4870   1.4870   2.0520   2.0520   2.7634   2.7634   3.1741   3.1741
     3.3767   3.3767   3.4502   3.4502   3.6872   3.6872   3.8128   3.8128
     4.2502   4.2502   6.2840   6.2840   6.6224   6.6224   6.7679   6.7679
     7.1129   7.1129

          k =-0.2541-0.1934 0.0000 ( 36410 PWs)   bands (ev):

   -44.1417 -44.1417 -22.2744 -22.2744 -22.1881 -22.1881 -22.0659 -22.0658
    -7.6113  -7.1282  -7.0593  -6.7782  -6.3801  -5.3378  -5.0363  -4.8375
    -4.7652  -3.9975   0.5104   0.8949   0.9328   1.2365   1.3826   1.3905
     1.9199   1.9691   2.1675   2.5129   2.5686   3.1537   3.3386   3.6137
     3.6470   3.7132   3.7612   3.8535   3.8895   4.2076   4.2085   4.2357
     4.4031   4.6258   5.8060   6.0034   6.3058   6.6009   6.6166   6.8302
     6.9941   7.0743

          k =-0.2541-0.1934 0.1485 ( 36427 PWs)   bands (ev):

   -44.1417 -44.1417 -22.2744 -22.2744 -22.1881 -22.1881 -22.0659 -22.0658
    -7.5742  -7.2977  -6.9212  -6.7900  -6.2806  -5.6346  -4.8769  -4.7820
    -4.6871  -4.0902   0.5494   0.9409   0.9817   1.0308   1.1923   1.5484
     1.8297   2.2695   2.3815   2.5164   2.5423   2.9189   3.3100   3.3593
     3.5840   3.6362   3.7500   3.8937   3.9741   4.0996   4.2303   4.2554
     4.6753   4.9365   5.8041   5.8945   6.1785   6.3319   6.5251   6.7109
     7.2000   7.2984

          k =-0.2541-0.1934-0.2971 ( 36422 PWs)   bands (ev):

   -44.1417 -44.1417 -22.2744 -22.2744 -22.1881 -22.1881 -22.0659 -22.0659
    -7.4658  -7.4658  -6.8303  -6.8303  -6.0058  -6.0058  -4.8230  -4.8230
    -4.3440  -4.3440   0.7020   0.7020   1.0649   1.0649   1.2388   1.2388
     2.2735   2.2735   2.4843   2.4843   2.6763   2.6763   3.1651   3.1651
     3.5637   3.5637   3.8102   3.8102   4.0563   4.0563   4.2548   4.2548
     5.1108   5.1108   5.7203   5.7203   6.1148   6.1148   6.5342   6.5342
     7.4067   7.4067

          k = 0.0000-0.1290 0.0000 ( 36417 PWs)   bands (ev):

   -44.1421 -44.1421 -22.2764 -22.2764 -22.1783 -22.1783 -22.0671 -22.0670
    -7.7308  -7.2365  -7.1375  -6.8204  -6.4364  -5.3792  -5.0312  -4.8775
    -4.8113  -3.8532   0.4173   0.7594   0.7709   1.0984   1.5375   1.5393
     2.3821   2.4052   2.6930   2.8374   2.9837   3.0203   3.2140   3.4482
     3.5673   3.6963   3.8062   4.0142   4.1807   4.2652   4.2790   4.6459
     4.9652   5.4955   5.6384   5.7312   5.8561   6.0347   6.3329   6.8106
     6.9554   7.2536

          k = 0.0000-0.1290 0.1485 ( 36419 PWs)   bands (ev):

   -44.1421 -44.1421 -22.2764 -22.2764 -22.1783 -22.1783 -22.0671 -22.0670
    -7.6927  -7.4074  -6.9887  -6.8336  -6.3436  -5.6893  -4.8919  -4.8244
    -4.6827  -3.9698   0.4703   0.8083   0.9191   1.0354   1.0815   1.9721
     2.1056   2.4108   2.6095   2.8922   2.9751   3.1344   3.3400   3.3800
     3.6700   3.7740   3.7995   3.9876   4.1239   4.2880   4.2978   4.6544
     4.8353   5.0211   5.7740   5.9652   6.0065   6.0330   6.6081   6.6476
     6.7834   7.2215

          k = 0.0000-0.1290-0.2971 ( 36464 PWs)   bands (ev):

   -44.1421 -44.1421 -22.2764 -22.2764 -22.1783 -22.1783 -22.0671 -22.0671
    -7.5812  -7.5812  -6.8805  -6.8805  -6.0721  -6.0721  -4.8557  -4.8557
    -4.2776  -4.2776   0.6752   0.6752   0.9130   0.9130   1.4033   1.4033
     2.4926   2.4926   2.6830   2.6830   2.9470   2.9470   3.4119   3.4119
     3.8180   3.8180   3.9577   3.9577   4.2449   4.2449   4.4192   4.4192
     4.7006   4.7006   5.9562   5.9562   6.2442   6.2442   6.3936   6.3936
     7.0857   7.0857

          k = 1.0162 0.0000 0.0000 ( 36499 PWs)   bands (ev):

   -44.1395 -44.1395 -22.2628 -22.2628 -22.2455 -22.2455 -22.0589 -22.0589
    -6.6998  -6.6798  -5.8785  -5.8687  -5.8058  -5.7962  -5.4232  -5.4224
    -4.5400  -4.5175   0.0256   0.0708   0.3636   0.4017   1.0028   1.0322
     1.4785   1.6532   2.2363   2.3602   2.3702   2.3931   2.7859   2.8045
     2.8516   2.8957   3.2410   3.2724   3.2859   3.4292   3.6173   3.6674
     3.7216   4.0322   6.4412   6.4949   6.5046   6.6069   7.0147   7.0586
     7.0674   7.0780

          k = 1.0162 0.0000 0.1485 ( 36485 PWs)   bands (ev):

   -44.1395 -44.1395 -22.2628 -22.2628 -22.2455 -22.2455 -22.0589 -22.0589
    -6.6962  -6.6820  -5.8953  -5.8875  -5.7891  -5.7834  -5.4174  -5.4165
    -4.5410  -4.5251  -0.0624  -0.0478   0.5976   0.6026   1.0278   1.0292
     1.4742   1.5808   1.9880   1.9926   2.3713   2.3796   2.6664   2.7975
     2.9809   3.0569   3.0702   3.1947   3.5256   3.6345   3.6823   3.7061
     4.0256   4.1499   5.9179   5.9642   6.4325   6.5177   7.0270   7.0396
     7.2923   7.2973

          k = 1.0162 0.0000-0.2971 ( 36514 PWs)   bands (ev):

   -44.1395 -44.1395 -22.2628 -22.2628 -22.2455 -22.2455 -22.0589 -22.0589
    -6.6883  -6.6883  -5.9051  -5.9051  -5.7756  -5.7756  -5.4111  -5.4111
    -4.5374  -4.5374  -0.1174  -0.1174   0.9005   0.9005   0.9419   0.9419
     1.5492   1.5492   1.6593   1.6593   2.3568   2.3568   2.7484   2.7484
     3.0538   3.0538   3.0835   3.0835   3.6295   3.6295   3.7803   3.7803
     4.4664   4.4664   5.4321   5.4321   6.3965   6.3965   7.0554   7.0554
     7.3626   7.3626

          k = 1.2703 0.0645 0.0000 ( 36468 PWs)   bands (ev):

   -44.1399 -44.1399 -22.2649 -22.2649 -22.2356 -22.2356 -22.0601 -22.0600
    -6.8511  -6.7369  -6.4245  -6.3410  -5.8499  -5.3473  -5.2425  -5.0823
    -4.6071  -4.5491   0.0246   0.1328   0.5542   1.0321   1.1303   1.2206
     1.5052   1.7095   1.9772   2.0405   2.3513   2.4331   2.4746   2.8354
     2.8529   3.1311   3.3182   3.4724   3.5339   3.5617   3.7177   3.8252
     3.8989   4.4440   5.8267   6.2330   6.3930   6.6453   6.8553   7.0092
     7.1845   7.5883

          k = 1.2703 0.0645 0.1485 ( 36490 PWs)   bands (ev):

   -44.1399 -44.1399 -22.2649 -22.2649 -22.2356 -22.2356 -22.0601 -22.0600
    -6.8335  -6.7514  -6.4240  -6.3732  -5.7677  -5.4302  -5.2043  -5.1008
    -4.5942  -4.5544   0.0577   0.2813   0.4472   0.9081   1.0935   1.1796
     1.5633   1.6377   1.7851   2.2558   2.2977   2.6005   2.7023   2.8465
     2.9040   3.1310   3.1735   3.3705   3.4351   3.5692   3.7460   3.8228
     3.8893   4.6156   5.4772   6.3537   6.5458   6.6734   6.8007   7.0168
     7.0736   7.4616

          k = 1.2703 0.0645-0.2971 ( 36480 PWs)   bands (ev):

   -44.1399 -44.1399 -22.2649 -22.2649 -22.2356 -22.2356 -22.0601 -22.0601
    -6.7911  -6.7911  -6.4122  -6.4122  -5.5961  -5.5961  -5.1479  -5.1479
    -4.5707  -4.5707   0.2130   0.2130   0.6361   0.6361   1.0327   1.0327
     1.5840   1.5840   2.0855   2.0855   2.4932   2.4932   2.8179   2.8179
     3.0144   3.0144   3.1968   3.1968   3.5869   3.5869   3.8341   3.8341
     4.0967   4.0967   6.0037   6.0037   6.4027   6.4027   7.0193   7.0193
     7.2791   7.2791

          k =-0.5081-0.3869 0.0000 ( 36463 PWs)   bands (ev):

   -44.1408 -44.1408 -22.2697 -22.2697 -22.2119 -22.2119 -22.0630 -22.0629
    -7.2681  -6.8838  -6.8145  -6.6662  -6.1909  -5.2502  -5.1065  -4.7320
    -4.6525  -4.4312   0.5513   0.5737   0.6840   1.2694   1.4184   1.5934
     1.6688   1.7324   2.0258   2.1334   2.2452   2.2784   2.3627   3.2528
     3.3820   3.4179   3.4346   3.5592   3.7016   3.8077   3.8135   4.0810
     4.4910   5.1869   5.4556   5.8063   6.1132   6.7259   6.7776   6.8200
     7.2761   7.5357

          k =-0.5081-0.3869 0.1485 ( 36477 PWs)   bands (ev):

   -44.1408 -44.1408 -22.2697 -22.2697 -22.2119 -22.2119 -22.0630 -22.0629
    -7.2349  -7.0000  -6.7494  -6.6756  -6.0806  -5.5009  -4.9310  -4.6933
    -4.6716  -4.4561   0.5004   0.7112   0.7793   1.0431   1.3791   1.4153
     1.5984   1.6860   2.0307   2.0753   2.3054   2.6040   2.8311   3.2146
     3.3764   3.4121   3.4513   3.5408   3.6391   3.6976   3.7815   4.1116
     4.2469   4.5537   6.0135   6.1406   6.2230   6.6158   6.7857   6.8447
     7.1217   7.4831

          k =-0.5081-0.3869-0.2971 ( 36492 PWs)   bands (ev):

   -44.1408 -44.1408 -22.2697 -22.2697 -22.2119 -22.2119 -22.0630 -22.0630
    -7.1397  -7.1397  -6.7026  -6.7026  -5.8184  -5.8184  -4.7907  -4.7907
    -4.5440  -4.5440   0.6008   0.6008   1.0638   1.0638   1.1330   1.1330
     1.5924   1.5924   2.0382   2.0382   2.7948   2.7948   3.1740   3.1740
     3.3303   3.3303   3.4148   3.4148   3.6835   3.6835   3.7966   3.7966
     4.1964   4.1964   6.2476   6.2476   6.6565   6.6565   6.7662   6.7662
     7.1292   7.1292

          k =-0.2541-0.3224 0.0000 ( 36485 PWs)   bands (ev):

   -44.1417 -44.1417 -22.2744 -22.2744 -22.1881 -22.1881 -22.0659 -22.0658
    -7.5981  -7.1261  -7.0494  -6.7919  -6.4014  -5.3380  -5.0473  -4.8426
    -4.7555  -3.9990   0.5365   0.9078   1.0567   1.2855   1.3858   1.4544
     1.9565   2.0027   2.1683   2.4358   2.5218   3.2560   3.2668   3.4334
     3.5983   3.6243   3.7398   3.8586   3.8855   4.1120   4.1631   4.2026
     4.3808   4.5909   5.8892   6.0239   6.3573   6.5762   6.7020   6.8473
     6.9253   7.0135

          k =-0.2541-0.3224 0.1485 ( 36445 PWs)   bands (ev):

   -44.1417 -44.1417 -22.2744 -22.2744 -22.1881 -22.1881 -22.0659 -22.0658
    -7.5612  -7.2875  -6.9253  -6.8039  -6.2948  -5.6353  -4.8980  -4.7775
    -4.6787  -4.0900   0.5705   0.9637   1.0110   1.1520   1.2691   1.5723
     1.8417   2.2715   2.4104   2.4445   2.5180   2.8978   3.3497   3.3750
     3.4236   3.5361   3.7002   3.8833   3.9117   4.0707   4.1465   4.2030
     4.6934   4.9062   5.7880   5.9247   6.1726   6.3450   6.6245   6.7298
     7.1524   7.2834

          k =-0.2541-0.3224-0.2971 ( 36442 PWs)   bands (ev):

   -44.1417 -44.1417 -22.2744 -22.2744 -22.1881 -22.1881 -22.0659 -22.0659
    -7.4534  -7.4534  -6.8427  -6.8427  -6.0104  -6.0104  -4.8307  -4.8307
    -4.3402  -4.3402   0.7153   0.7153   1.1903   1.1903   1.2504   1.2504
     2.2753   2.2753   2.4461   2.4461   2.6709   2.6709   3.2080   3.2080
     3.4037   3.4037   3.7929   3.7929   4.0257   4.0257   4.1845   4.1845
     5.1197   5.1197   5.6764   5.6764   6.0935   6.0935   6.6391   6.6391
     7.3769   7.3769

          k = 0.0000-0.2579 0.0000 ( 36445 PWs)   bands (ev):

   -44.1421 -44.1421 -22.2764 -22.2764 -22.1783 -22.1783 -22.0671 -22.0670
    -7.7191  -7.2345  -7.1257  -6.8335  -6.4589  -5.3803  -5.0419  -4.8847
    -4.7997  -3.8547   0.4584   0.7720   0.8841   1.1438   1.5628   1.5970
     2.3876   2.4084   2.7108   2.8343   2.9787   3.0472   3.3054   3.3161
     3.3576   3.6696   3.6740   3.9698   4.1291   4.1502   4.1807   4.6467
     4.9425   5.4387   5.7034   5.7491   5.8970   6.1044   6.4258   6.7447
     6.9562   7.2116

          k = 0.0000-0.2579 0.1485 ( 36452 PWs)   bands (ev):

   -44.1421 -44.1421 -22.2764 -22.2764 -22.1783 -22.1783 -22.0671 -22.0670
    -7.6811  -7.3982  -6.9897  -6.8464  -6.3597  -5.6909  -4.9132  -4.8185
    -4.6752  -3.9699   0.5046   0.9106   0.9540   1.0840   1.1178   1.9914
     2.1427   2.4169   2.6209   2.8928   2.9712   3.1358   3.2504   3.2992
     3.6286   3.6584   3.7504   3.9186   4.1187   4.1627   4.1825   4.6549
     4.8230   5.0068   5.8055   5.9758   6.0434   6.0722   6.5750   6.6994
     6.7855   7.1871

          k = 0.0000-0.2579-0.2971 ( 36454 PWs)   bands (ev):

   -44.1421 -44.1421 -22.2764 -22.2764 -22.1783 -22.1783 -22.0671 -22.0671
    -7.5703  -7.5703  -6.8907  -6.8907  -6.0782  -6.0782  -4.8624  -4.8624
    -4.2747  -4.2747   0.7081   0.7081   1.0009   1.0009   1.4239   1.4239
     2.5004   2.5004   2.7044   2.7044   2.9457   2.9457   3.2779   3.2779
     3.7715   3.7715   3.9419   3.9419   4.1065   4.1065   4.4086   4.4086
     4.6982   4.6982   5.9471   5.9471   6.2842   6.2842   6.3987   6.3987
     7.0721   7.0721

          k = 1.5243 0.0000 0.0000 ( 36439 PWs)   bands (ev):

   -44.1408 -44.1408 -22.2697 -22.2697 -22.2119 -22.2119 -22.0630 -22.0629
    -7.2622  -6.8836  -6.8136  -6.6711  -6.1953  -5.2497  -5.1097  -4.7333
    -4.6500  -4.4317   0.5458   0.5785   0.6780   1.2735   1.5181   1.5816
     1.6439   1.7303   2.0373   2.1522   2.2481   2.2772   2.3599   3.2047
     3.3650   3.3934   3.4465   3.6506   3.6917   3.6917   3.7991   4.0973
     4.4855   5.1836   5.4523   5.7691   6.1419   6.6896   6.8348   6.8695
     7.2292   7.5660

          k = 1.5243 0.0000 0.1485 ( 36476 PWs)   bands (ev):

   -44.1408 -44.1408 -22.2697 -22.2697 -22.2119 -22.2119 -22.0630 -22.0629
    -7.2291  -6.9960  -6.7534  -6.6812  -6.0828  -5.5005  -4.9357  -4.6929
    -4.6707  -4.4553   0.5010   0.7141   0.7733   1.0417   1.4086   1.4236
     1.6133   1.7167   2.0394   2.0676   2.3015   2.6128   2.8407   3.1672
     3.3353   3.4231   3.4349   3.6048   3.6399   3.6943   3.7096   4.1332
     4.1992   4.5553   5.9867   6.1510   6.2203   6.5864   6.8290   6.9105
     7.0733   7.4947

          k = 1.5243 0.0000-0.2971 ( 36508 PWs)   bands (ev):

   -44.1408 -44.1408 -22.2697 -22.2697 -22.2119 -22.2119 -22.0630 -22.0630
    -7.1343  -7.1343  -6.7086  -6.7086  -5.8186  -5.8186  -4.7943  -4.7943
    -4.5417  -4.5417   0.6038   0.6038   1.0632   1.0632   1.1268   1.1268
     1.6433   1.6433   2.0272   2.0272   2.8109   2.8109   3.1397   3.1397
     3.3302   3.3302   3.4141   3.4141   3.6785   3.6785   3.7890   3.7890
     4.1749   4.1749   6.2330   6.2330   6.6516   6.6516   6.7803   6.7803
     7.1420   7.1420

          k =-0.2541-0.4514 0.0000 ( 36444 PWs)   bands (ev):

   -44.1417 -44.1417 -22.2745 -22.2744 -22.1881 -22.1881 -22.0659 -22.0658
    -7.5884  -7.1245  -7.0430  -6.8005  -6.4174  -5.3381  -5.0554  -4.8438
    -4.7507  -4.0000   0.5460   0.9179   1.1726   1.3131   1.3806   1.5418
     1.9951   2.0288   2.1634   2.3493   2.4462   3.1904   3.2998   3.3647
     3.5594   3.6156   3.7573   3.8053   3.8540   4.0751   4.1358   4.1586
     4.3968   4.5573   5.9582   6.0340   6.3817   6.5540   6.7618   6.8466
     6.8571   6.9988

          k =-0.2541-0.4514 0.1485 ( 36461 PWs)   bands (ev):

   -44.1417 -44.1417 -22.2744 -22.2744 -22.1881 -22.1881 -22.0659 -22.0658
    -7.5516  -7.2800  -6.9291  -6.8132  -6.3050  -5.6357  -4.9112  -4.7756
    -4.6732  -4.0899   0.5772   0.9778   1.0203   1.2861   1.3369   1.5944
     1.8614   2.2676   2.3582   2.4169   2.4800   2.8887   3.2813   3.3003
     3.4084   3.5533   3.7382   3.8509   3.8602   3.9774   4.1420   4.1681
     4.7256   4.8712   5.7795   5.9482   6.1796   6.3147   6.6923   6.7419
     7.1291   7.2713

          k =-0.2541-0.4514-0.2971 ( 36490 PWs)   bands (ev):

   -44.1417 -44.1417 -22.2744 -22.2744 -22.1881 -22.1881 -22.0659 -22.0659
    -7.4444  -7.4444  -6.8519  -6.8519  -6.0136  -6.0136  -4.8361  -4.8361
    -4.3376  -4.3376   0.7189   0.7189   1.2580   1.2580   1.3113   1.3113
     2.2772   2.2772   2.3853   2.3853   2.6677   2.6677   3.2233   3.2233
     3.3027   3.3027   3.8035   3.8035   3.9877   3.9877   4.1488   4.1488
     5.1275   5.1275   5.6501   5.6501   6.0714   6.0714   6.7021   6.7021
     7.3588   7.3588

          k = 0.0000-0.3869 0.0000 ( 36477 PWs)   bands (ev):

   -44.1421 -44.1421 -22.2764 -22.2764 -22.1783 -22.1783 -22.0671 -22.0670
    -7.7069  -7.2325  -7.1144  -6.8451  -6.4829  -5.3813  -5.0535  -4.8866
    -4.7926  -3.8562   0.4819   0.7853   1.0392   1.2068   1.5865   1.6639
     2.3932   2.4116   2.7300   2.8313   2.9730   3.0596   3.0819   3.0909
     3.4613   3.6424   3.6705   3.9467   3.9546   4.0137   4.1806   4.6478
     4.9202   5.4070   5.7671   5.7751   5.9441   6.1461   6.4894   6.6477
     6.9569   7.1865

          k = 0.0000-0.3869 0.1485 ( 36452 PWs)   bands (ev):

   -44.1421 -44.1421 -22.2764 -22.2764 -22.1783 -22.1783 -22.0671 -22.0670
    -7.6691  -7.3888  -6.9918  -6.8585  -6.3761  -5.6924  -4.9311  -4.8152
    -4.6685  -3.9700   0.5203   0.9824   1.0112   1.1575   1.2088   2.0138
     2.1776   2.4230   2.6324   2.8942   2.9667   2.9728   3.0288   3.3186
     3.5900   3.6705   3.7264   3.9100   4.0206   4.0584   4.1131   4.6557
     4.8109   5.0014   5.8468   5.9870   6.0739   6.0826   6.5268   6.7299
     6.7876   7.1567

          k = 0.0000-0.3869-0.2971 ( 36454 PWs)   bands (ev):

   -44.1421 -44.1421 -22.2764 -22.2764 -22.1783 -22.1783 -22.0671 -22.0671
    -7.5589  -7.5589  -6.9015  -6.9015  -6.0841  -6.0841  -4.8692  -4.8692
    -4.2718  -4.2718   0.7174   0.7174   1.1405   1.1405   1.4459   1.4459
     2.5082   2.5082   2.6968   2.6968   2.9444   2.9444   3.0858   3.0858
     3.7947   3.7947   3.9258   3.9258   3.9899   3.9899   4.3927   4.3927
     4.6961   4.6961   5.9287   5.9287   6.3123   6.3123   6.4042   6.4042
     7.0461   7.0461

          k =-2.0325 0.0000 0.0000 ( 36452 PWs)   bands (ev):

   -44.1421 -44.1421 -22.2764 -22.2764 -22.1783 -22.1783 -22.0671 -22.0670
    -7.7017  -7.2317  -7.1099  -6.8494  -6.4934  -5.3817  -5.0584  -4.8864
    -4.7905  -3.8569   0.4868   0.7911   1.1541   1.1981   1.5959   1.7055
     2.3956   2.4131   2.7384   2.8300   2.9174   2.9704   2.9759   3.1155
     3.5702   3.6309   3.6861   3.8215   3.9477   3.9534   4.1805   4.6483
     4.9111   5.3977   5.7746   5.8065   5.9685   6.1588   6.5095   6.5971
     6.9571   7.1795

          k =-2.0325 0.0000 0.1485 ( 36456 PWs)   bands (ev):

   -44.1421 -44.1421 -22.2764 -22.2764 -22.1783 -22.1783 -22.0671 -22.0670
    -7.6640  -7.3848  -6.9930  -6.8632  -6.3830  -5.6929  -4.9380  -4.8143
    -4.6659  -3.9700   0.5224   0.9934   1.0416   1.2030   1.2715   2.0239
     2.1930   2.4256   2.6372   2.8612   2.8950   2.9142   2.9647   3.3633
     3.5697   3.7164   3.7169   3.8944   3.9523   4.0074   4.1107   4.6561
     4.8059   5.0006   5.8686   5.9917   6.0779   6.0861   6.5030   6.7374
     6.7885   7.1460

          k =-2.0325 0.0000-0.2971 ( 36460 PWs)   bands (ev):

   -44.1421 -44.1421 -22.2764 -22.2764 -22.1783 -22.1783 -22.0671 -22.0671
    -7.5540  -7.5540  -6.9061  -6.9061  -6.0865  -6.0865  -4.8720  -4.8720
    -4.2706  -4.2706   0.7175   0.7175   1.2152   1.2152   1.4557   1.4557
     2.5115   2.5115   2.6636   2.6636   2.9439   2.9439   3.0186   3.0186
     3.8181   3.8181   3.9191   3.9191   3.9378   3.9378   4.3866   4.3866
     4.6953   4.6953   5.9187   5.9187   6.3212   6.3212   6.4065   6.4065
     7.0338   7.0338

     the Fermi energy is     5.4228 ev

!    total energy              =   -4240.94991168 Ry

     total all-electron energy =   -150287.643606 Ry
     estimated scf accuracy    <          5.0E-11 Ry
     smearing contrib. (-TS)   =      -0.00002320 Ry
     internal energy E=F+TS    =   -4240.94988847 Ry

     The total energy is F=E-TS. E is the sum of the following terms:
     one-electron contribution =    -166.01383079 Ry
     hartree contribution      =     116.48483336 Ry
     xc contribution           =    -201.45712134 Ry
     ewald contribution        =    -222.44990990 Ry
     one-center paw contrib.   =   -3767.51385980 Ry

     convergence has been achieved in  19 iterations

     Forces acting on atoms (cartesian axes, Ry/au):

     atom    1 type  1   force =     0.00000000   -0.00931771    0.00000000
     atom    2 type  1   force =     0.00000000    0.00931771    0.00000000
     atom    3 type  2   force =     0.00000000    0.00029653    0.00000000
     atom    4 type  2   force =     0.00000000   -0.00029653    0.00000000
     atom    5 type  2   force =     0.00000000    0.00198482    0.00052045
     atom    6 type  2   force =    -0.00000000   -0.00198482   -0.00052045
     atom    7 type  2   force =     0.00000000    0.00198482   -0.00052045
     atom    8 type  2   force =     0.00000000   -0.00198482    0.00052045
     atom    9 type  2   force =    -0.00000000    0.01163685    0.01111991
     atom   10 type  2   force =    -0.00000000   -0.01163685   -0.01111991
     atom   11 type  2   force =     0.00000000    0.01163685   -0.01111991
     atom   12 type  2   force =     0.00000000   -0.01163685    0.01111991

     Total force =     0.035028     Total SCF correction =     0.000010


     Computing stress (Cartesian axis) and pressure

          total   stress  (Ry/bohr**3)                   (kbar)     P=       -2.78
  -0.00001591   0.00000000   0.00000000           -2.34        0.00        0.00
   0.00000000  -0.00001681   0.00000000            0.00       -2.47        0.00
   0.00000000   0.00000000  -0.00002392            0.00        0.00       -3.52

 
     init_run     :     20.78s CPU     21.26s WALL (       1 calls)
     electrons    :   1054.56s CPU   1066.38s WALL (       1 calls)
     forces       :      6.52s CPU      6.74s WALL (       1 calls)
     stress       :     41.73s CPU     42.32s WALL (       1 calls)

     Called by init_run:
     wfcinit      :     16.24s CPU     16.41s WALL (       1 calls)
     potinit      :      1.42s CPU      1.46s WALL (       1 calls)
     hinit0       :      1.77s CPU      1.82s WALL (       1 calls)

     Called by electrons:
     c_bands      :    890.11s CPU    893.91s WALL (      20 calls)
     sum_band     :    137.03s CPU    141.39s WALL (      20 calls)
     v_of_rho     :      5.97s CPU      6.25s WALL (      20 calls)
     newd         :     15.14s CPU     18.66s WALL (      20 calls)
     PAW_pot      :      6.32s CPU      6.33s WALL (      20 calls)
     mix_rho      :      0.90s CPU      0.93s WALL (      20 calls)

     Called by c_bands:
     init_us_2    :     12.19s CPU     12.25s WALL (    2709 calls)
     cegterg      :    808.04s CPU    811.17s WALL (    1260 calls)

     Called by *egterg:
     cdiaghg      :     32.11s CPU     32.18s WALL (    9401 calls)
     h_psi        :    612.06s CPU    615.02s WALL (    9527 calls)
     s_psi        :     51.80s CPU     51.88s WALL (    9527 calls)
     g_psi        :      2.31s CPU      2.33s WALL (    8204 calls)

     Called by h_psi:
     h_psi:calbec :     44.55s CPU     44.63s WALL (    9527 calls)
     vloc_psi     :    512.37s CPU    515.07s WALL (    9527 calls)
     add_vuspsi   :     51.53s CPU     51.62s WALL (    9527 calls)

     General routines
     calbec       :     57.54s CPU     57.66s WALL (   11102 calls)
     fft          :      3.51s CPU      3.65s WALL (     284 calls)
     ffts         :      0.09s CPU      0.09s WALL (      40 calls)
     fftw         :    467.26s CPU    469.71s WALL (  485856 calls)
     interpolate  :      0.32s CPU      0.33s WALL (      20 calls)
 
     Parallel routines
 
     PWSCF        :  18m43.84s CPU  18m57.03s WALL

 
   This run was terminated on:  15:36:35  19Nov2021            

=------------------------------------------------------------------------------=
   JOB DONE.
=------------------------------------------------------------------------------=
