
     Program PWSCF v.6.8 starts on 19Nov2021 at 15:17:15 

     This program is part of the open-source Quantum ESPRESSO suite
     for quantum simulation of materials; please cite
         "P. Giannozzi et al., J. Phys.:Condens. Matter 21 395502 (2009);
         "P. Giannozzi et al., J. Phys.:Condens. Matter 29 465901 (2017);
         "P. Giannozzi et al., J. Chem. Phys. 152 154105 (2020);
          URL http://www.quantum-espresso.org", 
     in publications or presentations arising from this work. More details at
     http://www.quantum-espresso.org/quote

     Parallel version (MPI), running on    10 processors

     MPI processes distributed on     1 nodes
     R & G space division:  proc/nbgrp/npool/nimage =      10
     80540 MiB available memory on the printing compute node when the environment starts
 
     Waiting for input...
     Reading input from standard input

     Current dimensions of program PWSCF are:
     Max number of different atomic species (ntypx) = 10
     Max number of k-points (npk) =  40000
     Max angular momentum in pseudopotentials (lmaxx) =  4
     file Zr.pbe-spn-kjpaw_psl.1.0.0.UPF: wavefunction(s)  4S 4P renormalized
     file Te.pbe-n-kjpaw_psl.1.0.0.UPF: wavefunction(s)  5S 5P renormalized
     Message from routine setup:
     using ibrav=0 with symmetry is DISCOURAGED, use correct ibrav instead

     Subspace diagonalization in iterative solution of the eigenvalue problem:
     a serial algorithm will be used

 
     Parallelization info
     --------------------
     sticks:   dense  smooth     PW     G-vecs:    dense   smooth      PW
     Min         734     293     87               115340    29174    4753
     Max         735     295     88               115345    29176    4760
     Sum        7345    2937    873              1153415   291749   47557
 
     Using Slab Decomposition
 


     bravais-lattice index     =            0
     lattice parameter (alat)  =      15.5510  a.u.
     unit-cell volume          =    3018.5011 (a.u.)^3
     number of atoms/cell      =           12
     number of atomic types    =            2
     number of electrons       =        84.00
     number of Kohn-Sham states=           50
     kinetic-energy cutoff     =      80.0000  Ry
     charge density cutoff     =     800.0000  Ry
     scf convergence threshold =      1.0E-10
     mixing beta               =       0.7000
     number of iterations used =            8  plain     mixing
     Exchange-correlation= SLA  PW   PBX  PBC
                           (   1   4   3   4   0   0   0)

     celldm(1)=  15.551040  celldm(2)=   0.000000  celldm(3)=   0.000000
     celldm(4)=   0.000000  celldm(5)=   0.000000  celldm(6)=   0.000000

     crystal axes: (cart. coord. in units of alat)
               a(1) = (   0.246007  -0.969268   0.000000 )  
               a(2) = (   0.246007   0.969268   0.000000 )  
               a(3) = (   0.000000   0.000000   1.683031 )  

     reciprocal axes: (cart. coord. in units 2 pi/alat)
               b(1) = (  2.032465 -0.515853  0.000000 )  
               b(2) = (  2.032465  0.515853  0.000000 )  
               b(3) = (  0.000000  0.000000  0.594166 )  


     PseudoPot. # 1 for Zr read from file:
     pseudo/Zr.pbe-spn-kjpaw_psl.1.0.0.UPF
     MD5 check sum: 02112c41713a0468aff2bb39ef194e36
     Pseudo is Projector augmented-wave + core cor, Zval = 12.0
     Generated using &quot;atomic&quot; code by A. Dal Corso  v.6.2.2
     Shape of augmentation charge: PSQ
     Using radial grid of 1225 points,  6 beta functions with: 
                l(1) =   0
                l(2) =   0
                l(3) =   1
                l(4) =   1
                l(5) =   2
                l(6) =   2
     Q(r) pseudized with 0 coefficients 


     PseudoPot. # 2 for Te read from file:
     pseudo/Te.pbe-n-kjpaw_psl.1.0.0.UPF
     MD5 check sum: 66247bff2bd9dbf220fbb0bf5ab56e9d
     Pseudo is Projector augmented-wave + core cor, Zval =  6.0
     Generated using &quot;atomic&quot; code by A. Dal Corso  v.6.3
     Shape of augmentation charge: PSQ
     Using radial grid of 1245 points,  6 beta functions with: 
                l(1) =   0
                l(2) =   0
                l(3) =   1
                l(4) =   1
                l(5) =   2
                l(6) =   2
     Q(r) pseudized with 0 coefficients 


     atomic species   valence    mass     pseudopotential
        Zr            12.00    91.22000     Zr( 1.00)
        Te             6.00   127.60000     Te( 1.00)

      8 Sym. Ops., with inversion, found ( 4 have fractional translation)



   Cartesian axes

     site n.     atom                  positions (alat units)
         1           Zr  tau(   1) = (   0.0000000   0.6064496   0.4207578  )
         2           Zr  tau(   2) = (   0.2460067   0.3628185   1.2622733  )
         3           Te  tau(   3) = (   0.2460067   0.3342653   0.4207578  )
         4           Te  tau(   4) = (   0.0000000   0.6350028   1.2622733  )
         5           Te  tau(   5) = (   0.2460067   0.8094424   0.2518017  )
         6           Te  tau(   6) = (   0.0000000   0.1598257   1.4312294  )
         7           Te  tau(   7) = (   0.2460067   0.8094424   0.5897139  )
         8           Te  tau(   8) = (   0.0000000   0.1598257   1.0933172  )
         9           Te  tau(   9) = (   0.0000000   0.4134165   0.7294748  )
        10           Te  tau(  10) = (   0.2460067   0.5558516   0.9535563  )
        11           Te  tau(  11) = (   0.0000000   0.4134165   0.1120407  )
        12           Te  tau(  12) = (   0.2460067   0.5558516   1.5709903  )

     number of k points=    63  Methfessel-Paxton smearing, width (Ry)=  0.0030
                       cart. coord. in units 2pi/alat
        k(    1) = (   0.0000000   0.0000000   0.0000000), wk =   0.0078125
        k(    2) = (   0.0000000   0.0000000   0.1485415), wk =   0.0156250
        k(    3) = (   0.0000000   0.0000000  -0.2970830), wk =   0.0078125
        k(    4) = (   0.2540581   0.0644816   0.0000000), wk =   0.0312500
        k(    5) = (   0.2540581   0.0644816   0.1485415), wk =   0.0625000
        k(    6) = (   0.2540581   0.0644816  -0.2970830), wk =   0.0312500
        k(    7) = (   0.5081162   0.1289633   0.0000000), wk =   0.0312500
        k(    8) = (   0.5081162   0.1289633   0.1485415), wk =   0.0625000
        k(    9) = (   0.5081162   0.1289633  -0.2970830), wk =   0.0312500
        k(   10) = (   0.7621743   0.1934449   0.0000000), wk =   0.0312500
        k(   11) = (   0.7621743   0.1934449   0.1485415), wk =   0.0625000
        k(   12) = (   0.7621743   0.1934449  -0.2970830), wk =   0.0312500
        k(   13) = (  -1.0162324  -0.2579266   0.0000000), wk =   0.0156250
        k(   14) = (  -1.0162324  -0.2579266   0.1485415), wk =   0.0312500
        k(   15) = (  -1.0162324  -0.2579266  -0.2970830), wk =   0.0156250
        k(   16) = (   0.5081162   0.0000000   0.0000000), wk =   0.0156250
        k(   17) = (   0.5081162   0.0000000   0.1485415), wk =   0.0312500
        k(   18) = (   0.5081162   0.0000000  -0.2970830), wk =   0.0156250
        k(   19) = (   0.7621743   0.0644816   0.0000000), wk =   0.0312500
        k(   20) = (   0.7621743   0.0644816   0.1485415), wk =   0.0625000
        k(   21) = (   0.7621743   0.0644816  -0.2970830), wk =   0.0312500
        k(   22) = (   1.0162324   0.1289633   0.0000000), wk =   0.0312500
        k(   23) = (   1.0162324   0.1289633   0.1485415), wk =   0.0625000
        k(   24) = (   1.0162324   0.1289633  -0.2970830), wk =   0.0312500
        k(   25) = (  -0.7621743  -0.3224082   0.0000000), wk =   0.0312500
        k(   26) = (  -0.7621743  -0.3224082   0.1485415), wk =   0.0625000
        k(   27) = (  -0.7621743  -0.3224082  -0.2970830), wk =   0.0312500
        k(   28) = (  -0.5081162  -0.2579266   0.0000000), wk =   0.0312500
        k(   29) = (  -0.5081162  -0.2579266   0.1485415), wk =   0.0625000
        k(   30) = (  -0.5081162  -0.2579266  -0.2970830), wk =   0.0312500
        k(   31) = (  -0.2540581  -0.1934449   0.0000000), wk =   0.0312500
        k(   32) = (  -0.2540581  -0.1934449   0.1485415), wk =   0.0625000
        k(   33) = (  -0.2540581  -0.1934449  -0.2970830), wk =   0.0312500
        k(   34) = (   0.0000000  -0.1289633   0.0000000), wk =   0.0156250
        k(   35) = (   0.0000000  -0.1289633   0.1485415), wk =   0.0312500
        k(   36) = (   0.0000000  -0.1289633  -0.2970830), wk =   0.0156250
        k(   37) = (   1.0162324   0.0000000   0.0000000), wk =   0.0156250
        k(   38) = (   1.0162324   0.0000000   0.1485415), wk =   0.0312500
        k(   39) = (   1.0162324   0.0000000  -0.2970830), wk =   0.0156250
        k(   40) = (   1.2702905   0.0644816   0.0000000), wk =   0.0312500
        k(   41) = (   1.2702905   0.0644816   0.1485415), wk =   0.0625000
        k(   42) = (   1.2702905   0.0644816  -0.2970830), wk =   0.0312500
        k(   43) = (  -0.5081162  -0.3868899   0.0000000), wk =   0.0312500
        k(   44) = (  -0.5081162  -0.3868899   0.1485415), wk =   0.0625000
        k(   45) = (  -0.5081162  -0.3868899  -0.2970830), wk =   0.0312500
        k(   46) = (  -0.2540581  -0.3224082   0.0000000), wk =   0.0312500
        k(   47) = (  -0.2540581  -0.3224082   0.1485415), wk =   0.0625000
        k(   48) = (  -0.2540581  -0.3224082  -0.2970830), wk =   0.0312500
        k(   49) = (   0.0000000  -0.2579266   0.0000000), wk =   0.0156250
        k(   50) = (   0.0000000  -0.2579266   0.1485415), wk =   0.0312500
        k(   51) = (   0.0000000  -0.2579266  -0.2970830), wk =   0.0156250
        k(   52) = (   1.5243485   0.0000000   0.0000000), wk =   0.0156250
        k(   53) = (   1.5243485   0.0000000   0.1485415), wk =   0.0312500
        k(   54) = (   1.5243485   0.0000000  -0.2970830), wk =   0.0156250
        k(   55) = (  -0.2540581  -0.4513715   0.0000000), wk =   0.0312500
        k(   56) = (  -0.2540581  -0.4513715   0.1485415), wk =   0.0625000
        k(   57) = (  -0.2540581  -0.4513715  -0.2970830), wk =   0.0312500
        k(   58) = (   0.0000000  -0.3868899   0.0000000), wk =   0.0156250
        k(   59) = (   0.0000000  -0.3868899   0.1485415), wk =   0.0312500
        k(   60) = (   0.0000000  -0.3868899  -0.2970830), wk =   0.0156250
        k(   61) = (  -2.0324647   0.0000000   0.0000000), wk =   0.0078125
        k(   62) = (  -2.0324647   0.0000000   0.1485415), wk =   0.0156250
        k(   63) = (  -2.0324647   0.0000000  -0.2970830), wk =   0.0078125

     Dense  grid:  1153415 G-vectors     FFT dimensions: ( 144, 144, 240)

     Smooth grid:   291749 G-vectors     FFT dimensions: (  90,  90, 150)

     Estimated max dynamical RAM per process >     657.19 MB

     Estimated total dynamical RAM >       6.42 GB

     Initial potential from superposition of free atoms

     starting charge   83.99353, renormalised to   84.00000
     Starting wfcs are   66 randomized atomic wfcs
     Checking if some PAW data can be deallocated... 

     total cpu time spent up to now is       21.4 secs

     Self-consistent Calculation

     iteration #  1     ecut=    80.00 Ry     beta= 0.70
     Davidson diagonalization with overlap
     ethr =  1.00E-02,  avg # of iterations =  2.0

     Threshold (ethr) on eigenvalues was too large:
     Diagonalizing with lowered threshold

     Davidson diagonalization with overlap
     ethr =  4.09E-04,  avg # of iterations =  4.0

     total cpu time spent up to now is      108.7 secs

     total energy              =   -4240.73177681 Ry
     estimated scf accuracy    <       0.43300919 Ry

     iteration #  2     ecut=    80.00 Ry     beta= 0.70
     Davidson diagonalization with overlap
     ethr =  5.15E-04,  avg # of iterations =  7.7

     total cpu time spent up to now is      171.0 secs

     total energy              =   -4240.63772895 Ry
     estimated scf accuracy    <       2.07473731 Ry

     iteration #  3     ecut=    80.00 Ry     beta= 0.70
     Davidson diagonalization with overlap
     ethr =  5.15E-04,  avg # of iterations =  5.2

     total cpu time spent up to now is      223.3 secs

     total energy              =   -4240.93676351 Ry
     estimated scf accuracy    <       0.01107510 Ry

     iteration #  4     ecut=    80.00 Ry     beta= 0.70
     Davidson diagonalization with overlap
     c_bands:  1 eigenvalues not converged
     c_bands:  2 eigenvalues not converged
     c_bands:  2 eigenvalues not converged
     c_bands:  2 eigenvalues not converged
     c_bands:  2 eigenvalues not converged
     c_bands:  2 eigenvalues not converged
     c_bands:  2 eigenvalues not converged
     c_bands:  1 eigenvalues not converged
     c_bands:  1 eigenvalues not converged
     c_bands:  2 eigenvalues not converged
     c_bands:  2 eigenvalues not converged
     c_bands:  1 eigenvalues not converged
     c_bands:  1 eigenvalues not converged
     c_bands:  1 eigenvalues not converged
     c_bands:  1 eigenvalues not converged
     c_bands:  3 eigenvalues not converged
     c_bands:  1 eigenvalues not converged
     c_bands:  1 eigenvalues not converged
     c_bands:  1 eigenvalues not converged
     c_bands:  1 eigenvalues not converged
     ethr =  1.32E-05,  avg # of iterations = 17.3

     total cpu time spent up to now is      322.8 secs

     total energy              =   -4240.94982378 Ry
     estimated scf accuracy    <       0.06719960 Ry

     iteration #  5     ecut=    80.00 Ry     beta= 0.70
     Davidson diagonalization with overlap
     ethr =  1.32E-05,  avg # of iterations =  7.4

     total cpu time spent up to now is      375.0 secs

     total energy              =   -4240.95171696 Ry
     estimated scf accuracy    <       0.01305537 Ry

     iteration #  6     ecut=    80.00 Ry     beta= 0.70
     Davidson diagonalization with overlap
     ethr =  1.32E-05,  avg # of iterations =  3.0

     total cpu time spent up to now is      416.6 secs

     total energy              =   -4240.95273735 Ry
     estimated scf accuracy    <       0.00146173 Ry

     iteration #  7     ecut=    80.00 Ry     beta= 0.70
     Davidson diagonalization with overlap
     c_bands:  1 eigenvalues not converged
     ethr =  1.74E-06,  avg # of iterations = 12.2

     total cpu time spent up to now is      488.1 secs

     total energy              =   -4240.95350998 Ry
     estimated scf accuracy    <       0.00171544 Ry

     iteration #  8     ecut=    80.00 Ry     beta= 0.70
     Davidson diagonalization with overlap
     ethr =  1.74E-06,  avg # of iterations =  2.2

     total cpu time spent up to now is      526.5 secs

     total energy              =   -4240.95355329 Ry
     estimated scf accuracy    <       0.00026106 Ry

     iteration #  9     ecut=    80.00 Ry     beta= 0.70
     Davidson diagonalization with overlap
     ethr =  3.11E-07,  avg # of iterations =  6.4
     Minimization algorithm failed to find Fermi energy: reverting to bisection
     Possible cause: smearing is larger than the electronic band-gap.

     total cpu time spent up to now is      577.3 secs

     total energy              =   -4240.95363672 Ry
     estimated scf accuracy    <       0.00003118 Ry

     iteration # 10     ecut=    80.00 Ry     beta= 0.70
     Davidson diagonalization with overlap
     ethr =  3.71E-08,  avg # of iterations =  3.6

     total cpu time spent up to now is      619.1 secs

     total energy              =   -4240.95363937 Ry
     estimated scf accuracy    <       0.00000637 Ry

     iteration # 11     ecut=    80.00 Ry     beta= 0.70
     Davidson diagonalization with overlap
     ethr =  7.58E-09,  avg # of iterations =  5.9

     total cpu time spent up to now is      669.8 secs

     total energy              =   -4240.95364202 Ry
     estimated scf accuracy    <       0.00000115 Ry

     iteration # 12     ecut=    80.00 Ry     beta= 0.70
     Davidson diagonalization with overlap
     ethr =  1.37E-09,  avg # of iterations =  3.2

     total cpu time spent up to now is      709.6 secs

     total energy              =   -4240.95364215 Ry
     estimated scf accuracy    <       0.00000009 Ry

     iteration # 13     ecut=    80.00 Ry     beta= 0.70
     Davidson diagonalization with overlap
     ethr =  1.09E-10,  avg # of iterations =  7.9

     total cpu time spent up to now is      767.7 secs

     total energy              =   -4240.95364222 Ry
     estimated scf accuracy    <       0.00000005 Ry

     iteration # 14     ecut=    80.00 Ry     beta= 0.70
     Davidson diagonalization with overlap
     ethr =  6.44E-11,  avg # of iterations =  1.6

     total cpu time spent up to now is      803.9 secs

     total energy              =   -4240.95364221 Ry
     estimated scf accuracy    <       0.00000002 Ry

     iteration # 15     ecut=    80.00 Ry     beta= 0.70
     Davidson diagonalization with overlap
     ethr =  2.19E-11,  avg # of iterations =  6.0

     total cpu time spent up to now is      851.3 secs

     total energy              =   -4240.95364222 Ry
     estimated scf accuracy    <          1.2E-09 Ry

     iteration # 16     ecut=    80.00 Ry     beta= 0.70
     Davidson diagonalization with overlap
     ethr =  1.45E-12,  avg # of iterations =  5.8

     total cpu time spent up to now is      898.0 secs

     total energy              =   -4240.95364222 Ry
     estimated scf accuracy    <          1.0E-09 Ry

     iteration # 17     ecut=    80.00 Ry     beta= 0.70
     Davidson diagonalization with overlap
     ethr =  1.20E-12,  avg # of iterations =  2.8

     total cpu time spent up to now is      936.7 secs

     total energy              =   -4240.95364222 Ry
     estimated scf accuracy    <          1.1E-10 Ry

     iteration # 18     ecut=    80.00 Ry     beta= 0.70
     Davidson diagonalization with overlap
     ethr =  1.35E-13,  avg # of iterations =  6.3

     total cpu time spent up to now is      987.8 secs

     End of self-consistent calculation

          k = 0.0000 0.0000 0.0000 ( 36359 PWs)   bands (ev):

   -44.1343 -44.1342 -22.2625 -22.2625 -22.1682 -22.1682 -22.0634 -22.0632
    -7.8215  -7.4202  -7.1322  -6.8482  -6.3434  -5.4035  -4.9597  -4.8479
    -4.7963  -3.8413   0.3574   0.7486   0.7589   1.1122   1.4745   1.5266
     2.3059   2.3534   2.6440   2.7247   2.9558   3.0120   3.2291   3.4283
     3.6764   3.7706   3.9529   4.0650   4.2290   4.3357   4.3461   4.6669
     4.8823   5.5068   5.6321   5.8000   5.8387   5.9587   6.1938   6.8327
     6.9758   7.2720

          k = 0.0000 0.0000 0.1485 ( 36415 PWs)   bands (ev):

   -44.1343 -44.1343 -22.2625 -22.2625 -22.1682 -22.1682 -22.0633 -22.0633
    -7.7856  -7.5299  -7.0341  -6.8648  -6.2632  -5.6739  -4.8506  -4.8053
    -4.6598  -3.9575   0.4203   0.7947   0.9014   1.0170   1.0727   1.9273
     2.0696   2.3342   2.5367   2.8156   2.9421   3.1209   3.3838   3.3982
     3.6948   3.8372   3.9363   4.0656   4.1689   4.3544   4.3645   4.6706
     4.7915   5.0019   5.7964   5.9602   5.9667   6.0053   6.5415   6.6317
     6.7991   7.2066

          k = 0.0000 0.0000-0.2971 ( 36410 PWs)   bands (ev):

   -44.1343 -44.1343 -22.2625 -22.2625 -22.1682 -22.1682 -22.0633 -22.0633
    -7.6822  -7.6822  -6.9220  -6.9220  -6.0239  -6.0239  -4.8270  -4.8270
    -4.2626  -4.2626   0.6321   0.6321   0.9163   0.9163   1.3676   1.3676
     2.4155   2.4155   2.6498   2.6498   2.8978   2.8978   3.4817   3.4817
     3.8844   3.8844   4.0041   4.0041   4.3472   4.3472   4.3914   4.3914
     4.6983   4.6983   5.9422   5.9422   6.2227   6.2227   6.4119   6.4119
     7.0170   7.0170

          k = 0.2541 0.0645 0.0000 ( 36396 PWs)   bands (ev):

   -44.1339 -44.1339 -22.2605 -22.2605 -22.1780 -22.1780 -22.0622 -22.0621
    -7.7042  -7.3088  -7.0601  -6.8007  -6.2816  -5.3594  -4.9718  -4.8052
    -4.7527  -3.9916   0.4436   0.8765   0.8887   1.2297   1.3055   1.3933
     1.8326   1.8651   2.0600   2.5621   2.5885   3.1406   3.3318   3.7173
     3.7430   3.7588   3.7922   3.8162   4.0206   4.2476   4.2791   4.2817
     4.4877   4.5917   5.8004   5.9792   6.2279   6.5759   6.6011   6.7758
     7.0091   7.1692

          k = 0.2541 0.0645 0.1485 ( 36423 PWs)   bands (ev):

   -44.1339 -44.1339 -22.2605 -22.2605 -22.1780 -22.1780 -22.0622 -22.0621
    -7.6691  -7.4185  -6.9674  -6.8157  -6.1988  -5.6200  -4.8263  -4.7637
    -4.6759  -4.0844   0.4944   0.9241   0.9467   0.9656   1.1795   1.4659
     1.7902   2.1469   2.2754   2.5438   2.5720   2.9465   3.3262   3.3426
     3.5758   3.7581   3.9251   3.9342   4.0252   4.1437   4.3100   4.3328
     4.6819   4.8817   5.8357   5.9142   6.1782   6.2654   6.4274   6.7302
     7.2284   7.3029

          k = 0.2541 0.0645-0.2971 ( 36436 PWs)   bands (ev):

   -44.1339 -44.1339 -22.2605 -22.2605 -22.1780 -22.1780 -22.0621 -22.0621
    -7.5678  -7.5678  -6.8667  -6.8667  -5.9596  -5.9596  -4.7905  -4.7905
    -4.3370  -4.3370   0.6642   0.6642   1.0216   1.0216   1.1875   1.1875
     2.1722   2.1722   2.4749   2.4749   2.6731   2.6731   3.1752   3.1752
     3.6258   3.6258   3.9296   3.9296   4.0987   4.0987   4.3384   4.3384
     5.0517   5.0517   5.7737   5.7737   6.1357   6.1357   6.4466   6.4466
     7.4144   7.4144

          k = 0.5081 0.1290 0.0000 ( 36499 PWs)   bands (ev):

   -44.1330 -44.1330 -22.2558 -22.2558 -22.2015 -22.2015 -22.0593 -22.0593
    -7.3694  -6.9852  -6.8898  -6.6753  -6.0908  -5.2617  -5.0690  -4.6940
    -4.6453  -4.4412   0.4564   0.5943   0.6502   1.2141   1.2276   1.4523
     1.6721   1.6932   1.9921   2.1030   2.1677   2.2425   2.4073   3.3647
     3.4449   3.5054   3.5167   3.5915   3.7716   3.8830   3.9174   4.1741
     4.4420   5.0945   5.5528   6.0367   6.0699   6.5833   6.6002   6.9352
     7.4420   7.5651

          k = 0.5081 0.1290 0.1485 ( 36476 PWs)   bands (ev):

   -44.1330 -44.1330 -22.2558 -22.2558 -22.2015 -22.2015 -22.0593 -22.0593
    -7.3369  -7.1046  -6.7991  -6.6867  -6.0062  -5.4898  -4.8953  -4.6746
    -4.6557  -4.4702   0.4425   0.6532   0.7645   1.0183   1.2554   1.3875
     1.4502   1.5656   2.0216   2.0949   2.3415   2.4683   2.8006   3.3873
     3.4208   3.4504   3.5223   3.5832   3.7006   3.7490   3.8482   4.2289
     4.3256   4.5156   6.1250   6.1676   6.3026   6.5854   6.6427   6.8005
     7.2798   7.5052

          k = 0.5081 0.1290-0.2971 ( 36466 PWs)   bands (ev):

   -44.1330 -44.1330 -22.2558 -22.2558 -22.2015 -22.2015 -22.0593 -22.0593
    -7.2435  -7.2435  -6.7242  -6.7242  -5.7825  -5.7825  -4.7511  -4.7511
    -4.5570  -4.5570   0.5381   0.5381   1.0381   1.0381   1.1181   1.1181
     1.4118   1.4118   2.0587   2.0587   2.7151   2.7151   3.1555   3.1555
     3.3975   3.3975   3.5527   3.5527   3.7085   3.7085   3.8298   3.8298
     4.3101   4.3101   6.3670   6.3670   6.5571   6.5571   6.8239   6.8239
     7.1317   7.1317

          k = 0.7622 0.1934 0.0000 ( 36521 PWs)   bands (ev):

   -44.1321 -44.1321 -22.2510 -22.2510 -22.2249 -22.2249 -22.0565 -22.0564
    -6.9173  -6.7345  -6.4874  -6.4635  -5.7979  -5.3757  -5.2230  -5.1019
    -4.5702  -4.5341   0.0143   0.0686   0.5340   1.0267   1.0521   1.2657
     1.4816   1.6031   1.9601   2.0602   2.2509   2.3777   2.4138   2.7854
     2.8755   3.2653   3.3349   3.4374   3.6078   3.6873   3.7042   3.7955
     3.8602   4.5628   5.8836   6.3033   6.3640   6.8280   6.8336   6.9284
     7.2935   7.6121

          k = 0.7622 0.1934 0.1485 ( 36503 PWs)   bands (ev):

   -44.1321 -44.1321 -22.2510 -22.2510 -22.2249 -22.2249 -22.0565 -22.0565
    -6.8951  -6.7670  -6.4862  -6.4680  -5.7348  -5.4440  -5.1976  -5.1168
    -4.5613  -4.5364   0.0308   0.2266   0.4062   0.9168   1.0250   1.2270
     1.4948   1.6298   1.8775   2.0638   2.1319   2.6255   2.6907   2.8384
     2.8849   3.0938   3.2716   3.3911   3.5266   3.6219   3.6528   3.9310
     3.9742   4.5497   5.6412   6.3350   6.6388   6.7278   6.8935   6.9699
     7.0703   7.5681

          k = 0.7622 0.1934-0.2971 ( 36522 PWs)   bands (ev):

   -44.1321 -44.1321 -22.2510 -22.2510 -22.2249 -22.2249 -22.0565 -22.0565
    -6.8361  -6.8361  -6.4785  -6.4785  -5.5902  -5.5902  -5.1541  -5.1541
    -4.5457  -4.5457   0.1757   0.1757   0.5690   0.5690   1.0820   1.0820
     1.5686   1.5686   2.0127   2.0127   2.3744   2.3744   2.8153   2.8153
     2.9910   2.9910   3.3317   3.3317   3.5932   3.5932   3.8715   3.8715
     4.1022   4.1022   6.1235   6.1235   6.4393   6.4393   6.9640   6.9640
     7.4139   7.4139

          k =-1.0162-0.2579 0.0000 ( 36506 PWs)   bands (ev):

   -44.1317 -44.1317 -22.2489 -22.2489 -22.2347 -22.2347 -22.0553 -22.0553
    -6.7092  -6.6891  -5.9622  -5.9511  -5.9040  -5.8961  -5.3575  -5.3568
    -4.5130  -4.4883  -0.0043   0.0187   0.3207   0.3420   1.0123   1.0215
     1.4684   1.6707   2.2343   2.3891   2.3971   2.4071   2.7974   2.8049
     2.8143   2.8512   3.2193   3.2612   3.3176   3.4230   3.5112   3.7248
     3.7595   4.0614   6.5265   6.5500   6.5565   6.6353   7.0137   7.1096
     7.1167   7.1345

          k =-1.0162-0.2579 0.1485 ( 36506 PWs)   bands (ev):

   -44.1317 -44.1317 -22.2489 -22.2489 -22.2347 -22.2347 -22.0553 -22.0553
    -6.7054  -6.6912  -5.9823  -5.9741  -5.8826  -5.8774  -5.3538  -5.3535
    -4.5130  -4.4956  -0.1014  -0.0942   0.5426   0.5495   1.0119   1.0300
     1.4647   1.5945   1.9793   2.0765   2.3760   2.3975   2.7085   2.7093
     2.9411   3.0242   3.1109   3.1948   3.5549   3.5730   3.6648   3.7547
     4.0304   4.1342   5.9997   6.0153   6.4761   6.5517   7.0832   7.1089
     7.3147   7.3606

          k =-1.0162-0.2579-0.2971 ( 36528 PWs)   bands (ev):

   -44.1317 -44.1317 -22.2489 -22.2489 -22.2347 -22.2347 -22.0553 -22.0553
    -6.6974  -6.6974  -5.9932  -5.9932  -5.8665  -5.8665  -5.3501  -5.3501
    -4.5079  -4.5079  -0.1611  -0.1611   0.8106   0.8106   0.9484   0.9484
     1.5324   1.5324   1.7334   1.7334   2.3758   2.3758   2.7710   2.7710
     2.9092   2.9092   3.1641   3.1641   3.6310   3.6310   3.8025   3.8025
     4.3939   4.3939   5.5402   5.5402   6.4308   6.4308   7.1189   7.1189
     7.4144   7.4144

          k = 0.5081 0.0000 0.0000 ( 36503 PWs)   bands (ev):

   -44.1330 -44.1330 -22.2558 -22.2558 -22.2015 -22.2015 -22.0593 -22.0593
    -7.3736  -6.9860  -6.8909  -6.6707  -6.0871  -5.2620  -5.0660  -4.6886
    -4.6518  -4.4408   0.4622   0.6009   0.6381   1.2070   1.2092   1.4289
     1.6752   1.6904   1.9781   2.1161   2.1629   2.2203   2.4058   3.3535
     3.4707   3.4796   3.5681   3.5894   3.7780   3.9026   3.9360   4.2113
     4.4440   5.0911   5.5585   6.0146   6.1057   6.5445   6.5488   6.9708
     7.4588   7.5787

          k = 0.5081 0.0000 0.1485 ( 36453 PWs)   bands (ev):

   -44.1330 -44.1330 -22.2558 -22.2558 -22.2015 -22.2015 -22.0593 -22.0593
    -7.3410  -7.1074  -6.7972  -6.6822  -6.0037  -5.4898  -4.8906  -4.6764
    -4.6554  -4.4713   0.4441   0.6483   0.7657   1.0208   1.2424   1.3994
     1.4087   1.5472   2.0185   2.1037   2.3619   2.4250   2.7963   3.3784
     3.4492   3.4711   3.4977   3.5919   3.6945   3.8197   3.8375   4.2681
     4.3379   4.5095   6.1196   6.1774   6.3199   6.5367   6.6059   6.8323
     7.3012   7.5133

          k = 0.5081 0.0000-0.2971 ( 36452 PWs)   bands (ev):

   -44.1330 -44.1330 -22.2558 -22.2558 -22.2015 -22.2015 -22.0593 -22.0593
    -7.2472  -7.2472  -6.7203  -6.7203  -5.7818  -5.7818  -4.7471  -4.7471
    -4.5598  -4.5598   0.5353   0.5353   1.0386   1.0386   1.1294   1.1294
     1.3728   1.3728   2.0606   2.0606   2.7061   2.7061   3.1439   3.1439
     3.3985   3.3985   3.5730   3.5730   3.7352   3.7352   3.8298   3.8298
     4.3312   4.3312   6.3828   6.3828   6.5211   6.5211   6.8410   6.8410
     7.1329   7.1329

          k = 0.7622 0.0645 0.0000 ( 36505 PWs)   bands (ev):

   -44.1321 -44.1321 -22.2510 -22.2510 -22.2249 -22.2249 -22.0565 -22.0564
    -6.9260  -6.7323  -6.4889  -6.4555  -5.7977  -5.3724  -5.2237  -5.1013
    -4.5611  -4.5441   0.0100   0.0790   0.5505   1.0402   1.0584   1.2798
     1.4437   1.5644   1.9319   2.0782   2.2588   2.3551   2.3588   2.7598
     2.8636   3.3152   3.3566   3.4677   3.6187   3.6291   3.7138   3.8276
     3.8771   4.5978   5.8812   6.3019   6.3511   6.8050   6.8855   6.8867
     7.3103   7.6258

          k = 0.7622 0.0645 0.1485 ( 36509 PWs)   bands (ev):

   -44.1321 -44.1321 -22.2510 -22.2510 -22.2249 -22.2249 -22.0565 -22.0565
    -6.9032  -6.7683  -6.4837  -6.4602  -5.7353  -5.4432  -5.1964  -5.1159
    -4.5549  -4.5435   0.0348   0.2277   0.4155   0.9176   1.0416   1.2424
     1.4613   1.6296   1.9059   1.9940   2.0611   2.6430   2.6753   2.8240
     2.8672   3.0966   3.3278   3.3998   3.5298   3.6171   3.6579   3.9549
     4.0024   4.5470   5.6667   6.3145   6.6492   6.7273   6.9068   6.9690
     7.0448   7.5873

          k = 0.7622 0.0645-0.2971 ( 36472 PWs)   bands (ev):

   -44.1321 -44.1321 -22.2510 -22.2510 -22.2249 -22.2249 -22.0565 -22.0565
    -6.8419  -6.8419  -6.4718  -6.4718  -5.5909  -5.5909  -5.1526  -5.1526
    -4.5460  -4.5460   0.1828   0.1828   0.5624   0.5624   1.1051   1.1051
     1.5622   1.5622   1.9630   1.9630   2.3492   2.3492   2.8164   2.8164
     2.9781   2.9781   3.3917   3.3917   3.5903   3.5903   3.8579   3.8579
     4.1222   4.1222   6.1489   6.1489   6.4401   6.4401   6.9314   6.9314
     7.4413   7.4413

          k = 1.0162 0.1290 0.0000 ( 36514 PWs)   bands (ev):

   -44.1317 -44.1317 -22.2489 -22.2489 -22.2347 -22.2347 -22.0553 -22.0553
    -6.7092  -6.6891  -5.9619  -5.9513  -5.9040  -5.8961  -5.3575  -5.3568
    -4.5130  -4.4883  -0.0102   0.0247   0.3164   0.3464   1.0061   1.0290
     1.4743   1.6616   2.2340   2.3884   2.3893   2.4086   2.7922   2.8050
     2.8166   2.8730   3.2365   3.2445   3.3029   3.4118   3.5485   3.7047
     3.7453   4.0747   6.5163   6.5515   6.5607   6.6418   7.0314   7.1109
     7.1189   7.1225

          k = 1.0162 0.1290 0.1485 ( 36524 PWs)   bands (ev):

   -44.1317 -44.1317 -22.2489 -22.2489 -22.2347 -22.2347 -22.0553 -22.0553
    -6.7054  -6.6911  -5.9821  -5.9743  -5.8826  -5.8774  -5.3539  -5.3534
    -4.5130  -4.4956  -0.1036  -0.0924   0.5438   0.5489   1.0144   1.0280
     1.4699   1.5894   1.9912   2.0602   2.3748   2.3925   2.6662   2.7586
     2.9549   3.0357   3.0993   3.1870   3.5300   3.6095   3.6611   3.7442
     4.0112   4.1536   5.9918   6.0265   6.4730   6.5543   7.0889   7.1079
     7.3215   7.3544

          k = 1.0162 0.1290-0.2971 ( 36516 PWs)   bands (ev):

   -44.1317 -44.1317 -22.2489 -22.2489 -22.2347 -22.2347 -22.0553 -22.0553
    -6.6974  -6.6974  -5.9932  -5.9932  -5.8665  -5.8665  -5.3501  -5.3501
    -4.5079  -4.5079  -0.1612  -0.1612   0.8110   0.8110   0.9484   0.9484
     1.5333   1.5333   1.7342   1.7342   2.3667   2.3667   2.7553   2.7553
     2.9545   2.9545   3.1412   3.1412   3.6347   3.6347   3.7986   3.7986
     4.3943   4.3943   5.5425   5.5425   6.4302   6.4302   7.1206   7.1206
     7.4150   7.4150

          k =-0.7622-0.3224 0.0000 ( 36511 PWs)   bands (ev):

   -44.1321 -44.1321 -22.2510 -22.2510 -22.2249 -22.2249 -22.0565 -22.0564
    -6.9039  -6.7388  -6.4851  -6.4749  -5.7982  -5.3804  -5.2221  -5.1029
    -4.5774  -4.5255   0.0205   0.0543   0.5110   0.9952   1.0687   1.2480
     1.5037   1.6665   2.0182   2.0375   2.2751   2.4036   2.4452   2.8219
     2.8888   3.2038   3.3176   3.4407   3.5750   3.6643   3.6667   3.8189
     3.8619   4.5041   5.8871   6.2932   6.4051   6.7459   6.8775   6.9946
     7.2608   7.5955

          k =-0.7622-0.3224 0.1485 ( 36492 PWs)   bands (ev):

   -44.1321 -44.1321 -22.2510 -22.2510 -22.2249 -22.2249 -22.0565 -22.0565
    -6.8827  -6.7658  -6.4898  -6.4792  -5.7343  -5.4453  -5.1993  -5.1181
    -4.5662  -4.5304   0.0244   0.2266   0.3923   0.9083   1.0181   1.2062
     1.5320   1.6325   1.8588   2.1677   2.2167   2.6092   2.6942   2.8580
     2.9023   3.1118   3.2041   3.3761   3.4765   3.6081   3.6922   3.8825
     3.9445   4.5522   5.6072   6.3680   6.6124   6.7264   6.8651   7.0111
     7.0989   7.5312

          k =-0.7622-0.3224-0.2971 ( 36508 PWs)   bands (ev):

   -44.1321 -44.1321 -22.2510 -22.2510 -22.2249 -22.2249 -22.0565 -22.0565
    -6.8274  -6.8274  -6.4883  -6.4883  -5.5892  -5.5892  -5.1563  -5.1563
    -4.5453  -4.5453   0.1659   0.1659   0.5779   0.5779   1.0549   1.0549
     1.5769   1.5769   2.0684   2.0684   2.4295   2.4295   2.8149   2.8149
     3.0099   3.0099   3.2465   3.2465   3.5921   3.5921   3.8755   3.8755
     4.0842   4.0842   6.0904   6.0904   6.4370   6.4370   7.0181   7.0181
     7.3672   7.3672

          k =-0.5081-0.2579 0.0000 ( 36480 PWs)   bands (ev):

   -44.1330 -44.1330 -22.2558 -22.2558 -22.2015 -22.2015 -22.0593 -22.0593
    -7.3587  -6.9835  -6.8877  -6.6858  -6.0998  -5.2611  -5.0761  -4.7022
    -4.6342  -4.4424   0.4429   0.5916   0.6615   1.2252   1.2891   1.5092
     1.6643   1.7071   2.0275   2.0790   2.1731   2.2859   2.4084   3.3868
     3.3885   3.4482   3.5417   3.5563   3.7475   3.7908   3.9338   4.0979
     4.4332   5.1008   5.5411   5.9770   6.0987   6.6820   6.7212   6.8503
     7.3898   7.5347

          k =-0.5081-0.2579 0.1485 ( 36485 PWs)   bands (ev):

   -44.1330 -44.1330 -22.2558 -22.2558 -22.2015 -22.2015 -22.0593 -22.0593
    -7.3265  -7.0979  -6.8041  -6.6973  -6.0122  -5.4897  -4.9062  -4.6710
    -4.6563  -4.4677   0.4387   0.6637   0.7599   1.0124   1.2901   1.3879
     1.5236   1.6201   2.0217   2.0806   2.3249   2.5336   2.8110   3.3311
     3.4070   3.4453   3.5488   3.5539   3.6189   3.7247   3.8436   4.1495
     4.2860   4.5266   6.1108   6.1647   6.2683   6.6882   6.7300   6.7464
     7.2222   7.4886

          k =-0.5081-0.2579-0.2971 ( 36478 PWs)   bands (ev):

   -44.1330 -44.1330 -22.2558 -22.2558 -22.2015 -22.2015 -22.0593 -22.0593
    -7.2342  -7.2342  -6.7339  -6.7339  -5.7842  -5.7842  -4.7604  -4.7604
    -4.5505  -4.5505   0.5447   0.5447   1.0362   1.0362   1.0988   1.0988
     1.5069   1.5069   2.0501   2.0501   2.7411   2.7411   3.1750   3.1750
     3.3848   3.3848   3.4810   3.4810   3.6863   3.6863   3.8247   3.8247
     4.2595   4.2595   6.3301   6.3301   6.6334   6.6334   6.7875   6.7875
     7.1359   7.1359

          k =-0.2541-0.1934 0.0000 ( 36410 PWs)   bands (ev):

   -44.1339 -44.1339 -22.2606 -22.2605 -22.1780 -22.1780 -22.0622 -22.0621
    -7.6969  -7.3076  -7.0538  -6.8085  -6.2950  -5.3606  -4.9795  -4.8131
    -4.7413  -3.9926   0.4699   0.8840   0.9588   1.2578   1.3024   1.4270
     1.8558   1.8896   2.0614   2.5290   2.5777   3.2046   3.2959   3.6469
     3.6766   3.7271   3.7696   3.8683   3.8786   4.1994   4.2484   4.2718
     4.3941   4.6034   5.8548   6.0057   6.2904   6.5940   6.6292   6.7889
     6.9933   7.0885

          k =-0.2541-0.1934 0.1485 ( 36427 PWs)   bands (ev):

   -44.1339 -44.1339 -22.2605 -22.2605 -22.1780 -22.1780 -22.0622 -22.0621
    -7.6619  -7.4139  -6.9670  -6.8231  -6.2090  -5.6217  -4.8445  -4.7572
    -4.6694  -4.0844   0.5182   0.9409   0.9637   1.0335   1.2127   1.4808
     1.7961   2.1499   2.3024   2.5261   2.5561   2.9297   3.3466   3.3826
     3.5821   3.6536   3.7784   3.8976   3.9805   4.1214   4.2685   4.2824
     4.6747   4.8748   5.8227   5.9371   6.1687   6.3333   6.4973   6.7326
     7.1878   7.2922

          k =-0.2541-0.1934-0.2971 ( 36422 PWs)   bands (ev):

   -44.1339 -44.1339 -22.2605 -22.2605 -22.1780 -22.1780 -22.0621 -22.0621
    -7.5613  -7.5613  -6.8720  -6.8720  -5.9643  -5.9643  -4.7955  -4.7955
    -4.3346  -4.3346   0.6829   0.6829   1.0827   1.0827   1.1962   1.1962
     2.1737   2.1737   2.4684   2.4684   2.6716   2.6716   3.1954   3.1954
     3.5979   3.5979   3.8180   3.8180   4.0801   4.0801   4.2847   4.2847
     5.0606   5.0606   5.7354   5.7354   6.1443   6.1443   6.5235   6.5235
     7.3947   7.3947

          k = 0.0000-0.1290 0.0000 ( 36417 PWs)   bands (ev):

   -44.1343 -44.1343 -22.2625 -22.2625 -22.1682 -22.1682 -22.0634 -22.0632
    -7.8176  -7.4195  -7.1280  -6.8524  -6.3518  -5.4046  -4.9642  -4.8539
    -4.7882  -3.8419   0.3771   0.7532   0.8001   1.1211   1.4856   1.5541
     2.3072   2.3539   2.6430   2.7318   2.9557   3.0173   3.2670   3.4154
     3.6236   3.7596   3.8386   4.0134   4.2291   4.2807   4.2987   4.6667
     4.8718   5.4714   5.6559   5.8075   5.8577   6.0067   6.2429   6.8237
     6.9760   7.2410

          k = 0.0000-0.1290 0.1485 ( 36419 PWs)   bands (ev):

   -44.1343 -44.1343 -22.2625 -22.2625 -22.1682 -22.1682 -22.0633 -22.0633
    -7.7818  -7.5275  -7.0330  -6.8687  -6.2699  -5.6753  -4.8612  -4.8007
    -4.6568  -3.9576   0.4389   0.8365   0.9114   1.0207   1.0932   1.9334
     2.0864   2.3355   2.5382   2.8193   2.9426   3.1311   3.3617   3.4092
     3.6855   3.8271   3.8303   3.9913   4.1664   4.3016   4.3197   4.6702
     4.7851   4.9926   5.8079   5.9779   6.0055   6.0102   6.5640   6.6272
     6.7999   7.1899

          k = 0.0000-0.1290-0.2971 ( 36464 PWs)   bands (ev):

   -44.1343 -44.1343 -22.2625 -22.2625 -22.1682 -22.1682 -22.0633 -22.0633
    -7.6788  -7.6788  -6.9243  -6.9243  -6.0273  -6.0273  -4.8295  -4.8295
    -4.2616  -4.2616   0.6532   0.6532   0.9396   0.9396   1.3750   1.3750
     2.4170   2.4170   2.6608   2.6608   2.8997   2.8997   3.4666   3.4666
     3.8316   3.8316   3.9970   3.9970   4.2506   4.2506   4.4092   4.4092
     4.6965   4.6965   5.9524   5.9524   6.2403   6.2403   6.4143   6.4143
     7.0155   7.0155

          k = 1.0162 0.0000 0.0000 ( 36499 PWs)   bands (ev):

   -44.1317 -44.1317 -22.2489 -22.2489 -22.2347 -22.2347 -22.0553 -22.0553
    -6.7092  -6.6891  -5.9617  -5.9516  -5.9040  -5.8961  -5.3575  -5.3568
    -4.5130  -4.4883  -0.0145   0.0291   0.3131   0.3498   1.0027   1.0336
     1.4809   1.6516   2.2334   2.3825   2.3878   2.4100   2.7881   2.8039
     2.8189   2.8935   3.2529   3.2574   3.2649   3.3963   3.5995   3.6697
     3.7329   4.0869   6.5097   6.5470   6.5679   6.6478   7.0576   7.1020
     7.1122   7.1210

          k = 1.0162 0.0000 0.1485 ( 36485 PWs)   bands (ev):

   -44.1317 -44.1317 -22.2489 -22.2489 -22.2347 -22.2347 -22.0553 -22.0553
    -6.7054  -6.6911  -5.9820  -5.9744  -5.8825  -5.8774  -5.3539  -5.3533
    -4.5130  -4.4956  -0.1052  -0.0911   0.5457   0.5477   1.0184   1.0245
     1.4758   1.5837   2.0172   2.0299   2.3803   2.3810   2.6522   2.7766
     2.9762   3.0627   3.0673   3.1792   3.5195   3.6281   3.6656   3.7287
     3.9964   4.1688   5.9876   6.0341   6.4702   6.5567   7.0967   7.1048
     7.3354   7.3411

          k = 1.0162 0.0000-0.2971 ( 36514 PWs)   bands (ev):

   -44.1317 -44.1317 -22.2489 -22.2489 -22.2347 -22.2347 -22.0553 -22.0553
    -6.6974  -6.6974  -5.9932  -5.9932  -5.8665  -5.8665  -5.3501  -5.3501
    -4.5079  -4.5079  -0.1614  -0.1614   0.8114   0.8114   0.9485   0.9485
     1.5342   1.5342   1.7351   1.7351   2.3578   2.3578   2.7443   2.7443
     3.0081   3.0081   3.1048   3.1048   3.6385   3.6385   3.7946   3.7946
     4.3948   4.3948   5.5448   5.5448   6.4297   6.4297   7.1222   7.1222
     7.4156   7.4157

          k = 1.2703 0.0645 0.0000 ( 36468 PWs)   bands (ev):

   -44.1321 -44.1321 -22.2510 -22.2510 -22.2249 -22.2249 -22.0565 -22.0564
    -6.8933  -6.7428  -6.4835  -6.4829  -5.7985  -5.3838  -5.2213  -5.1036
    -4.5811  -4.5208   0.0249   0.0445   0.4951   0.9789   1.0803   1.2363
     1.5080   1.7124   2.0228   2.0760   2.3071   2.4218   2.4347   2.8493
     2.8937   3.1532   3.3423   3.4883   3.5237   3.5709   3.6745   3.7700
     3.9422   4.4515   5.8896   6.2885   6.4401   6.6867   6.9116   7.0532
     7.2249   7.5948

          k = 1.2703 0.0645 0.1485 ( 36490 PWs)   bands (ev):

   -44.1321 -44.1321 -22.2510 -22.2510 -22.2249 -22.2249 -22.0565 -22.0565
    -6.8730  -6.7657  -6.4921  -6.4877  -5.7338  -5.4462  -5.2004  -5.1191
    -4.5687  -4.5271   0.0194   0.2277   0.3820   0.8988   1.0211   1.1924
     1.5524   1.6366   1.8519   2.2431   2.2817   2.5946   2.6870   2.8675
     2.9159   3.1371   3.1624   3.3602   3.4495   3.5602   3.7567   3.8228
     3.9311   4.5527   5.5847   6.3964   6.5829   6.7247   6.8510   7.0572
     7.1129   7.4976

          k = 1.2703 0.0645-0.2971 ( 36480 PWs)   bands (ev):

   -44.1321 -44.1321 -22.2510 -22.2510 -22.2249 -22.2249 -22.0565 -22.0565
    -6.8210  -6.8210  -6.4956  -6.4956  -5.5884  -5.5884  -5.1579  -5.1579
    -4.5450  -4.5450   0.1590   0.1590   0.5839   0.5839   1.0389   1.0389
     1.5827   1.5827   2.0960   2.0960   2.4864   2.4864   2.8185   2.8185
     3.0230   3.0230   3.1788   3.1788   3.5895   3.5895   3.8656   3.8656
     4.0813   4.0813   6.0688   6.0688   6.4347   6.4347   7.0652   7.0652
     7.3251   7.3251

          k =-0.5081-0.3869 0.0000 ( 36463 PWs)   bands (ev):

   -44.1330 -44.1330 -22.2558 -22.2558 -22.2015 -22.2015 -22.0593 -22.0593
    -7.3474  -6.9817  -6.8868  -6.6955  -6.1091  -5.2604  -5.0833  -4.7073
    -4.6263  -4.4435   0.4301   0.5995   0.6562   1.2358   1.3738   1.5672
     1.6599   1.7136   2.0640   2.0663   2.1966   2.2956   2.4048   3.2707
     3.4117   3.4526   3.4747   3.6115   3.7015   3.7607   3.8496   4.0932
     4.4210   5.1035   5.5318   5.8857   6.1642   6.7651   6.7931   6.8441
     7.3115   7.5220

          k =-0.5081-0.3869 0.1485 ( 36477 PWs)   bands (ev):

   -44.1330 -44.1330 -22.2558 -22.2558 -22.2015 -22.2015 -22.0593 -22.0593
    -7.3156  -7.0911  -6.8101  -6.7076  -6.0183  -5.4896  -4.9166  -4.6686
    -4.6561  -4.4653   0.4351   0.6741   0.7516   1.0072   1.3287   1.3925
     1.6018   1.6899   2.0130   2.0697   2.3228   2.5714   2.8230   3.2256
     3.4073   3.4438   3.4839   3.5694   3.6114   3.7191   3.8050   4.1145
     4.2262   4.5356   6.0594   6.1873   6.2490   6.6498   6.7971   6.8712
     7.1473   7.4856

          k =-0.5081-0.3869-0.2971 ( 36492 PWs)   bands (ev):

   -44.1330 -44.1330 -22.2558 -22.2558 -22.2015 -22.2015 -22.0593 -22.0593
    -7.2245  -7.2245  -6.7442  -6.7442  -5.7859  -5.7859  -4.7692  -4.7692
    -4.5446  -4.5446   0.5508   0.5508   1.0335   1.0335   1.0853   1.0853
     1.6152   1.6152   2.0309   2.0309   2.7755   2.7755   3.1529   3.1529
     3.3541   3.3541   3.4419   3.4419   3.6839   3.6839   3.8141   3.8141
     4.2110   4.2110   6.2949   6.2949   6.6702   6.6702   6.7800   6.7800
     7.1555   7.1555

          k =-0.2541-0.3224 0.0000 ( 36485 PWs)   bands (ev):

   -44.1339 -44.1339 -22.2606 -22.2605 -22.1780 -22.1780 -22.0622 -22.0621
    -7.6861  -7.3058  -7.0457  -6.8185  -6.3146  -5.3622  -4.9911  -4.8177
    -4.7309  -3.9940   0.4958   0.8961   1.0804   1.2956   1.3064   1.4984
     1.8912   1.9267   2.0618   2.4548   2.5333   3.2461   3.3133   3.4742
     3.6060   3.6338   3.7482   3.8240   3.9157   4.1390   4.1505   4.2395
     4.3509   4.5977   5.9408   6.0304   6.3487   6.5849   6.7094   6.8058
     6.9208   7.0207

          k =-0.2541-0.3224 0.1485 ( 36445 PWs)   bands (ev):

   -44.1339 -44.1339 -22.2606 -22.2605 -22.1780 -22.1780 -22.0622 -22.0621
    -7.6514  -7.4074  -6.9673  -6.8330  -6.2236  -5.6240  -4.8653  -4.7520
    -4.6613  -4.0843   0.5405   0.9525   0.9871   1.1622   1.2875   1.5042
     1.8115   2.1532   2.3420   2.4589   2.5211   2.9137   3.3768   3.4165
     3.4687   3.5430   3.6752   3.8873   3.9133   4.0777   4.1837   4.2397
     4.6980   4.8494   5.8092   5.9694   6.1649   6.3613   6.5954   6.7401
     7.1450   7.2749

          k =-0.2541-0.3224-0.2971 ( 36442 PWs)   bands (ev):

   -44.1339 -44.1339 -22.2605 -22.2605 -22.1780 -22.1780 -22.0621 -22.0621
    -7.5520  -7.5520  -6.8799  -6.8799  -5.9708  -5.9708  -4.8025  -4.8025
    -4.3312  -4.3312   0.6982   0.6982   1.1854   1.1854   1.2238   1.2238
     2.1783   2.1783   2.4388   2.4388   2.6654   2.6654   3.2277   3.2277
     3.4477   3.4477   3.7947   3.7947   4.0371   4.0371   4.2198   4.2198
     5.0745   5.0745   5.6934   5.6934   6.1294   6.1294   6.6233   6.6233
     7.3704   7.3704

          k = 0.0000-0.2579 0.0000 ( 36445 PWs)   bands (ev):

   -44.1343 -44.1343 -22.2625 -22.2625 -22.1682 -22.1682 -22.0634 -22.0632
    -7.8080  -7.4179  -7.1179  -6.8618  -6.3728  -5.4073  -4.9764  -4.8598
    -4.7758  -3.8433   0.4153   0.7647   0.9118   1.1686   1.5113   1.6144
     2.3102   2.3564   2.6407   2.7496   2.9554   3.0402   3.3187   3.3706
     3.4162   3.6530   3.7327   3.9615   4.1521   4.1630   4.2293   4.6663
     4.8465   5.4212   5.7157   5.8257   5.9064   6.0806   6.3322   6.7763
     6.9764   7.1866

          k = 0.0000-0.2579 0.1485 ( 36452 PWs)   bands (ev):

   -44.1343 -44.1343 -22.2625 -22.2625 -22.1682 -22.1682 -22.0633 -22.0633
    -7.7725  -7.5217  -7.0308  -6.8777  -6.2863  -5.6787  -4.8816  -4.7941
    -4.6502  -3.9578   0.4726   0.9261   0.9478   1.0685   1.1388   1.9500
     2.1257   2.3388   2.5417   2.8291   2.9436   3.1313   3.2897   3.3600
     3.6280   3.6571   3.8026   3.9140   4.1601   4.1769   4.2000   4.6695
     4.7701   4.9817   5.8427   6.0209   6.0223   6.0563   6.5892   6.6162
     6.8021   7.1514

          k = 0.0000-0.2579-0.2971 ( 36454 PWs)   bands (ev):

   -44.1343 -44.1343 -22.2625 -22.2625 -22.1682 -22.1682 -22.0633 -22.0633
    -7.6704  -7.6704  -6.9303  -6.9303  -6.0354  -6.0354  -4.8355  -4.8355
    -4.2592  -4.2592   0.6866   0.6866   1.0258   1.0258   1.3935   1.3935
     2.4207   2.4207   2.6846   2.6846   2.9045   2.9045   3.3411   3.3411
     3.7735   3.7735   3.9795   3.9795   4.1141   4.1141   4.3936   4.3936
     4.6926   4.6926   5.9588   5.9588   6.2772   6.2772   6.4203   6.4203
     6.9988   6.9988

          k = 1.5243 0.0000 0.0000 ( 36439 PWs)   bands (ev):

   -44.1330 -44.1330 -22.2558 -22.2558 -22.2015 -22.2015 -22.0593 -22.0593
    -7.3426  -6.9810  -6.8868  -6.6992  -6.1131  -5.2601  -5.0863  -4.7089
    -4.6235  -4.4439   0.4249   0.6076   0.6476   1.2400   1.4196   1.5962
     1.6670   1.6922   2.0683   2.0837   2.2400   2.2585   2.4015   3.2253
     3.4023   3.4240   3.4846   3.6960   3.7125   3.7183   3.7464   4.1112
     4.4154   5.1031   5.5285   5.8475   6.1940   6.7290   6.8472   6.8980
     7.2654   7.5537

          k = 1.5243 0.0000 0.1485 ( 36476 PWs)   bands (ev):

   -44.1330 -44.1330 -22.2558 -22.2558 -22.2015 -22.2015 -22.0593 -22.0593
    -7.3109  -7.0882  -6.8130  -6.7117  -6.0208  -5.4895  -4.9208  -4.6679
    -4.6557  -4.4643   0.4337   0.6790   0.7465   1.0052   1.3456   1.3945
     1.6434   1.7179   2.0181   2.0541   2.3268   2.5762   2.8295   3.1820
     3.3681   3.4513   3.4667   3.6114   3.6266   3.7167   3.7431   4.1467
     4.1700   4.5392   6.0331   6.1996   6.2443   6.6200   6.8392   6.9387
     7.0996   7.4985

          k = 1.5243 0.0000-0.2971 ( 36508 PWs)   bands (ev):

   -44.1330 -44.1330 -22.2558 -22.2558 -22.2015 -22.2015 -22.0593 -22.0593
    -7.2203  -7.2203  -6.7485  -6.7485  -5.7865  -5.7865  -4.7727  -4.7727
    -4.5422  -4.5422   0.5531   0.5531   1.0322   1.0322   1.0806   1.0806
     1.6689   1.6689   2.0160   2.0160   2.7942   2.7942   3.1171   3.1171
     3.3529   3.3529   3.4363   3.4363   3.6824   3.6824   3.8076   3.8076
     4.1923   4.1923   6.2808   6.2808   6.6660   6.6660   6.7917   6.7917
     7.1704   7.1705

          k =-0.2541-0.4514 0.0000 ( 36444 PWs)   bands (ev):

   -44.1339 -44.1339 -22.2606 -22.2605 -22.1780 -22.1780 -22.0622 -22.0621
    -7.6782  -7.3045  -7.0406  -6.8245  -6.3291  -5.3633  -4.9996  -4.8184
    -4.7259  -3.9950   0.5062   0.9056   1.1988   1.2891   1.3277   1.5843
     1.9179   1.9654   2.0580   2.3726   2.4588   3.2114   3.3354   3.4035
     3.5140   3.6646   3.7723   3.8091   3.8363   4.0994   4.1223   4.1855
     4.3462   4.5928   6.0123   6.0426   6.3757   6.5763   6.7745   6.8079
     6.8359   7.0011

          k =-0.2541-0.4514 0.1485 ( 36461 PWs)   bands (ev):

   -44.1339 -44.1339 -22.2606 -22.2605 -22.1780 -22.1780 -22.0622 -22.0621
    -7.6438  -7.4028  -6.9681  -6.8395  -6.2342  -5.6255  -4.8782  -4.7496
    -4.6561  -4.0843   0.5487   0.9661   0.9925   1.2941   1.3456   1.5286
     1.8345   2.1539   2.3734   2.3883   2.4470   2.9124   3.3098   3.3374
     3.4398   3.5604   3.7276   3.8448   3.8738   3.9678   4.1773   4.2065
     4.7398   4.8109   5.8020   5.9938   6.1712   6.3428   6.6629   6.7416
     7.1276   7.2609

          k =-0.2541-0.4514-0.2971 ( 36490 PWs)   bands (ev):

   -44.1339 -44.1339 -22.2605 -22.2605 -22.1780 -22.1780 -22.0621 -22.0621
    -7.5452  -7.5452  -6.8857  -6.8857  -5.9753  -5.9753  -4.8075  -4.8075
    -4.3289  -4.3289   0.7035   0.7035   1.2069   1.2069   1.3238   1.3238
     2.1860   2.1860   2.3837   2.3837   2.6622   2.6622   3.2344   3.2344
     3.3435   3.3435   3.8185   3.8185   3.9830   3.9830   4.1880   4.1880
     5.0853   5.0853   5.6679   5.6679   6.1104   6.1104   6.6836   6.6836
     7.3563   7.3563

          k = 0.0000-0.3869 0.0000 ( 36477 PWs)   bands (ev):

   -44.1343 -44.1343 -22.2625 -22.2625 -22.1682 -22.1682 -22.0634 -22.0632
    -7.7982  -7.4163  -7.1085  -6.8699  -6.3949  -5.4099  -4.9897  -4.8598
    -4.7683  -3.8447   0.4386   0.7771   1.0644   1.2307   1.5356   1.6831
     2.3132   2.3605   2.6383   2.7687   2.9544   3.0786   3.1016   3.1322
     3.5205   3.6181   3.7052   3.9493   3.9762   4.0194   4.2293   4.6661
     4.8216   5.3927   5.7783   5.8441   5.9654   6.1258   6.3924   6.6883
     6.9767   7.1588

          k = 0.0000-0.3869 0.1485 ( 36452 PWs)   bands (ev):

   -44.1343 -44.1343 -22.2625 -22.2625 -22.1682 -22.1682 -22.0633 -22.0633
    -7.7629  -7.5159  -7.0293  -6.8859  -6.3031  -5.6819  -4.8988  -4.7902
    -4.6444  -3.9579   0.4902   0.9601   1.0215   1.1633   1.2220   1.9696
     2.1643   2.3420   2.5449   2.8402   2.9443   3.0080   3.0843   3.3283
     3.5668   3.6842   3.7777   3.9126   4.0370   4.0630   4.1533   4.6690
     4.7555   4.9782   5.8873   6.0349   6.0563   6.0768   6.5479   6.6326
     6.8042   7.1203

          k = 0.0000-0.3869-0.2971 ( 36454 PWs)   bands (ev):

   -44.1343 -44.1343 -22.2625 -22.2625 -22.1682 -22.1682 -22.0633 -22.0633
    -7.6619  -7.6619  -6.9365  -6.9365  -6.0433  -6.0433  -4.8416  -4.8416
    -4.2567  -4.2567   0.7001   0.7001   1.1590   1.1590   1.4131   1.4131
     2.4243   2.4243   2.6900   2.6900   2.9096   2.9096   3.1330   3.1330
     3.8050   3.8050   3.9616   3.9616   3.9954   3.9954   4.3740   4.3740
     4.6889   4.6889   5.9503   5.9503   6.3054   6.3054   6.4266   6.4266
     6.9711   6.9711

          k =-2.0325 0.0000 0.0000 ( 36452 PWs)   bands (ev):

   -44.1343 -44.1343 -22.2625 -22.2625 -22.1682 -22.1682 -22.0634 -22.0632
    -7.7940  -7.4157  -7.1048  -6.8728  -6.4044  -5.4109  -4.9953  -4.8587
    -4.7662  -3.8453   0.4441   0.7824   1.1830   1.2151   1.5451   1.7253
     2.3145   2.3632   2.6373   2.7771   2.9538   2.9686   3.0192   3.1003
     3.6263   3.6420   3.6936   3.8393   3.9454   3.9605   4.2293   4.6661
     4.8114   5.3843   5.8043   5.8517   5.9968   6.1397   6.4112   6.6386
     6.9767   7.1531

          k =-2.0325 0.0000 0.1485 ( 36456 PWs)   bands (ev):

   -44.1343 -44.1343 -22.2625 -22.2625 -22.1682 -22.1682 -22.0633 -22.0633
    -7.7589  -7.5135  -7.0290  -6.8890  -6.3101  -5.6832  -4.9053  -4.7890
    -4.6421  -3.9580   0.4934   0.9700   1.0446   1.2213   1.2752   1.9786
     2.1823   2.3433   2.5462   2.8452   2.9084   2.9444   2.9666   3.3557
     3.5464   3.7471   3.7672   3.9094   3.9531   4.0063   4.1504   4.6689
     4.7495   4.9779   5.9106   6.0402   6.0708   6.0763   6.5223   6.6374
     6.8052   7.1102

          k =-2.0325 0.0000-0.2971 ( 36460 PWs)   bands (ev):

   -44.1343 -44.1343 -22.2625 -22.2625 -22.1682 -22.1682 -22.0633 -22.0633
    -7.6582  -7.6582  -6.9392  -6.9392  -6.0466  -6.0466  -4.8441  -4.8441
    -4.2557  -4.2557   0.7018   0.7018   1.2305   1.2305   1.4214   1.4214
     2.4258   2.4258   2.6724   2.6724   2.9118   2.9118   3.0489   3.0489
     3.8433   3.8433   3.9319   3.9319   3.9541   3.9541   4.3667   4.3667
     4.6875   4.6875   5.9437   5.9437   6.3148   6.3148   6.4293   6.4293
     6.9583   6.9583

     the Fermi energy is     5.5085 ev

!    total energy              =   -4240.95364222 Ry

     total all-electron energy =   -150287.647337 Ry
     estimated scf accuracy    <          1.7E-12 Ry
     smearing contrib. (-TS)   =       0.00001925 Ry
     internal energy E=F+TS    =   -4240.95366147 Ry

     The total energy is F=E-TS. E is the sum of the following terms:
     one-electron contribution =    -166.64940413 Ry
     hartree contribution      =     116.80447679 Ry
     xc contribution           =    -201.48727858 Ry
     ewald contribution        =    -222.10338928 Ry
     one-center paw contrib.   =   -3767.51806627 Ry

     convergence has been achieved in  18 iterations

     Forces acting on atoms (cartesian axes, Ry/au):

     atom    1 type  1   force =     0.00000000   -0.00298091    0.00000000
     atom    2 type  1   force =    -0.00000000    0.00298091    0.00000000
     atom    3 type  2   force =     0.00000000    0.00011821    0.00000000
     atom    4 type  2   force =     0.00000000   -0.00011821    0.00000000
     atom    5 type  2   force =     0.00000000    0.00066204    0.00036130
     atom    6 type  2   force =     0.00000000   -0.00066204   -0.00036130
     atom    7 type  2   force =     0.00000000    0.00066204   -0.00036130
     atom    8 type  2   force =     0.00000000   -0.00066204    0.00036130
     atom    9 type  2   force =     0.00000000    0.00411017    0.00409851
     atom   10 type  2   force =     0.00000000   -0.00411017   -0.00409851
     atom   11 type  2   force =     0.00000000    0.00411017   -0.00409851
     atom   12 type  2   force =     0.00000000   -0.00411017    0.00409851

     Total force =     0.012443     Total SCF correction =     0.000001


     Computing stress (Cartesian axis) and pressure

          total   stress  (Ry/bohr**3)                   (kbar)     P=       -0.97
  -0.00000448  -0.00000000   0.00000000           -0.66       -0.00        0.00
   0.00000000  -0.00000542   0.00000000            0.00       -0.80        0.00
   0.00000000   0.00000000  -0.00000985            0.00        0.00       -1.45

 
     init_run     :     19.92s CPU     20.55s WALL (       1 calls)
     electrons    :    954.70s CPU    966.40s WALL (       1 calls)
     forces       :      7.01s CPU      7.24s WALL (       1 calls)
     stress       :     43.13s CPU     43.75s WALL (       1 calls)

     Called by init_run:
     wfcinit      :     15.35s CPU     15.54s WALL (       1 calls)
     potinit      :      1.33s CPU      1.39s WALL (       1 calls)
     hinit0       :      1.55s CPU      1.64s WALL (       1 calls)

     Called by electrons:
     c_bands      :    773.89s CPU    777.43s WALL (      19 calls)
     sum_band     :    153.55s CPU    157.99s WALL (      19 calls)
     v_of_rho     :      5.90s CPU      6.21s WALL (      19 calls)
     newd         :     15.62s CPU     19.22s WALL (      19 calls)
     PAW_pot      :      6.10s CPU      6.11s WALL (      19 calls)
     mix_rho      :      0.89s CPU      0.92s WALL (      19 calls)

     Called by c_bands:
     init_us_2    :     12.05s CPU     12.10s WALL (    2583 calls)
     cegterg      :    694.48s CPU    697.42s WALL (    1197 calls)

     Called by *egterg:
     cdiaghg      :     27.14s CPU     27.21s WALL (    8093 calls)
     h_psi        :    532.32s CPU    535.10s WALL (    8219 calls)
     s_psi        :     45.05s CPU     45.12s WALL (    8219 calls)
     g_psi        :      1.91s CPU      1.93s WALL (    6959 calls)

     Called by h_psi:
     h_psi:calbec :     38.24s CPU     38.32s WALL (    8219 calls)
     vloc_psi     :    446.19s CPU    448.74s WALL (    8219 calls)
     add_vuspsi   :     44.80s CPU     44.87s WALL (    8219 calls)

     General routines
     calbec       :     50.88s CPU     51.01s WALL (    9731 calls)
     fft          :      3.56s CPU      3.74s WALL (     271 calls)
     ffts         :      0.09s CPU      0.09s WALL (      38 calls)
     fftw         :    417.02s CPU    419.31s WALL (  423568 calls)
     interpolate  :      0.34s CPU      0.34s WALL (      19 calls)
 
     Parallel routines
 
     PWSCF        :  17m 5.06s CPU  17m18.82s WALL

 
   This run was terminated on:  15:34:34  19Nov2021            

=------------------------------------------------------------------------------=
   JOB DONE.
=------------------------------------------------------------------------------=
