
     Program PWSCF v.6.8 starts on 19Nov2021 at 15:17:15 

     This program is part of the open-source Quantum ESPRESSO suite
     for quantum simulation of materials; please cite
         "P. Giannozzi et al., J. Phys.:Condens. Matter 21 395502 (2009);
         "P. Giannozzi et al., J. Phys.:Condens. Matter 29 465901 (2017);
         "P. Giannozzi et al., J. Chem. Phys. 152 154105 (2020);
          URL http://www.quantum-espresso.org", 
     in publications or presentations arising from this work. More details at
     http://www.quantum-espresso.org/quote

     Parallel version (MPI), running on    10 processors

     MPI processes distributed on     1 nodes
     R & G space division:  proc/nbgrp/npool/nimage =      10
     80410 MiB available memory on the printing compute node when the environment starts
 
     Waiting for input...
     Reading input from standard input

     Current dimensions of program PWSCF are:
     Max number of different atomic species (ntypx) = 10
     Max number of k-points (npk) =  40000
     Max angular momentum in pseudopotentials (lmaxx) =  4
     file Zr.pbe-spn-kjpaw_psl.1.0.0.UPF: wavefunction(s)  4S 4P renormalized
     file Te.pbe-n-kjpaw_psl.1.0.0.UPF: wavefunction(s)  5S 5P renormalized
     Message from routine setup:
     using ibrav=0 with symmetry is DISCOURAGED, use correct ibrav instead

     Subspace diagonalization in iterative solution of the eigenvalue problem:
     a serial algorithm will be used

 
     Parallelization info
     --------------------
     sticks:   dense  smooth     PW     G-vecs:    dense   smooth      PW
     Min         734     293     87               115340    29174    4753
     Max         735     295     88               115345    29176    4760
     Sum        7345    2937    873              1153415   291749   47557
 
     Using Slab Decomposition
 


     bravais-lattice index     =            0
     lattice parameter (alat)  =      15.5510  a.u.
     unit-cell volume          =    3018.5011 (a.u.)^3
     number of atoms/cell      =           12
     number of atomic types    =            2
     number of electrons       =        84.00
     number of Kohn-Sham states=           50
     kinetic-energy cutoff     =      80.0000  Ry
     charge density cutoff     =     800.0000  Ry
     scf convergence threshold =      1.0E-10
     mixing beta               =       0.7000
     number of iterations used =            8  plain     mixing
     Exchange-correlation= SLA  PW   PBX  PBC
                           (   1   4   3   4   0   0   0)

     celldm(1)=  15.551040  celldm(2)=   0.000000  celldm(3)=   0.000000
     celldm(4)=   0.000000  celldm(5)=   0.000000  celldm(6)=   0.000000

     crystal axes: (cart. coord. in units of alat)
               a(1) = (   0.246007  -0.969268   0.000000 )  
               a(2) = (   0.246007   0.969268   0.000000 )  
               a(3) = (   0.000000   0.000000   1.683031 )  

     reciprocal axes: (cart. coord. in units 2 pi/alat)
               b(1) = (  2.032465 -0.515853  0.000000 )  
               b(2) = (  2.032465  0.515853  0.000000 )  
               b(3) = (  0.000000  0.000000  0.594166 )  


     PseudoPot. # 1 for Zr read from file:
     pseudo/Zr.pbe-spn-kjpaw_psl.1.0.0.UPF
     MD5 check sum: 02112c41713a0468aff2bb39ef194e36
     Pseudo is Projector augmented-wave + core cor, Zval = 12.0
     Generated using &quot;atomic&quot; code by A. Dal Corso  v.6.2.2
     Shape of augmentation charge: PSQ
     Using radial grid of 1225 points,  6 beta functions with: 
                l(1) =   0
                l(2) =   0
                l(3) =   1
                l(4) =   1
                l(5) =   2
                l(6) =   2
     Q(r) pseudized with 0 coefficients 


     PseudoPot. # 2 for Te read from file:
     pseudo/Te.pbe-n-kjpaw_psl.1.0.0.UPF
     MD5 check sum: 66247bff2bd9dbf220fbb0bf5ab56e9d
     Pseudo is Projector augmented-wave + core cor, Zval =  6.0
     Generated using &quot;atomic&quot; code by A. Dal Corso  v.6.3
     Shape of augmentation charge: PSQ
     Using radial grid of 1245 points,  6 beta functions with: 
                l(1) =   0
                l(2) =   0
                l(3) =   1
                l(4) =   1
                l(5) =   2
                l(6) =   2
     Q(r) pseudized with 0 coefficients 


     atomic species   valence    mass     pseudopotential
        Zr            12.00    91.22000     Zr( 1.00)
        Te             6.00   127.60000     Te( 1.00)

      8 Sym. Ops., with inversion, found ( 4 have fractional translation)



   Cartesian axes

     site n.     atom                  positions (alat units)
         1           Zr  tau(   1) = (   0.0000000   0.6066433   0.4207578  )
         2           Zr  tau(   2) = (   0.2460067   0.3626248   1.2622733  )
         3           Te  tau(   3) = (   0.2460067   0.3342692   0.4207578  )
         4           Te  tau(   4) = (   0.0000000   0.6349989   1.2622733  )
         5           Te  tau(   5) = (   0.2460067   0.8093543   0.2517415  )
         6           Te  tau(   6) = (   0.0000000   0.1599139   1.4312896  )
         7           Te  tau(   7) = (   0.2460067   0.8093543   0.5897740  )
         8           Te  tau(   8) = (   0.0000000   0.1599139   1.0932570  )
         9           Te  tau(   9) = (   0.0000000   0.4130772   0.7291511  )
        10           Te  tau(  10) = (   0.2460067   0.5561909   0.9538799  )
        11           Te  tau(  11) = (   0.0000000   0.4130772   0.1123644  )
        12           Te  tau(  12) = (   0.2460067   0.5561909   1.5706667  )

     number of k points=    63  Methfessel-Paxton smearing, width (Ry)=  0.0030
                       cart. coord. in units 2pi/alat
        k(    1) = (   0.0000000   0.0000000   0.0000000), wk =   0.0078125
        k(    2) = (   0.0000000   0.0000000   0.1485415), wk =   0.0156250
        k(    3) = (   0.0000000   0.0000000  -0.2970830), wk =   0.0078125
        k(    4) = (   0.2540581   0.0644816   0.0000000), wk =   0.0312500
        k(    5) = (   0.2540581   0.0644816   0.1485415), wk =   0.0625000
        k(    6) = (   0.2540581   0.0644816  -0.2970830), wk =   0.0312500
        k(    7) = (   0.5081162   0.1289633   0.0000000), wk =   0.0312500
        k(    8) = (   0.5081162   0.1289633   0.1485415), wk =   0.0625000
        k(    9) = (   0.5081162   0.1289633  -0.2970830), wk =   0.0312500
        k(   10) = (   0.7621743   0.1934449   0.0000000), wk =   0.0312500
        k(   11) = (   0.7621743   0.1934449   0.1485415), wk =   0.0625000
        k(   12) = (   0.7621743   0.1934449  -0.2970830), wk =   0.0312500
        k(   13) = (  -1.0162324  -0.2579266   0.0000000), wk =   0.0156250
        k(   14) = (  -1.0162324  -0.2579266   0.1485415), wk =   0.0312500
        k(   15) = (  -1.0162324  -0.2579266  -0.2970830), wk =   0.0156250
        k(   16) = (   0.5081162   0.0000000   0.0000000), wk =   0.0156250
        k(   17) = (   0.5081162   0.0000000   0.1485415), wk =   0.0312500
        k(   18) = (   0.5081162   0.0000000  -0.2970830), wk =   0.0156250
        k(   19) = (   0.7621743   0.0644816   0.0000000), wk =   0.0312500
        k(   20) = (   0.7621743   0.0644816   0.1485415), wk =   0.0625000
        k(   21) = (   0.7621743   0.0644816  -0.2970830), wk =   0.0312500
        k(   22) = (   1.0162324   0.1289633   0.0000000), wk =   0.0312500
        k(   23) = (   1.0162324   0.1289633   0.1485415), wk =   0.0625000
        k(   24) = (   1.0162324   0.1289633  -0.2970830), wk =   0.0312500
        k(   25) = (  -0.7621743  -0.3224082   0.0000000), wk =   0.0312500
        k(   26) = (  -0.7621743  -0.3224082   0.1485415), wk =   0.0625000
        k(   27) = (  -0.7621743  -0.3224082  -0.2970830), wk =   0.0312500
        k(   28) = (  -0.5081162  -0.2579266   0.0000000), wk =   0.0312500
        k(   29) = (  -0.5081162  -0.2579266   0.1485415), wk =   0.0625000
        k(   30) = (  -0.5081162  -0.2579266  -0.2970830), wk =   0.0312500
        k(   31) = (  -0.2540581  -0.1934449   0.0000000), wk =   0.0312500
        k(   32) = (  -0.2540581  -0.1934449   0.1485415), wk =   0.0625000
        k(   33) = (  -0.2540581  -0.1934449  -0.2970830), wk =   0.0312500
        k(   34) = (   0.0000000  -0.1289633   0.0000000), wk =   0.0156250
        k(   35) = (   0.0000000  -0.1289633   0.1485415), wk =   0.0312500
        k(   36) = (   0.0000000  -0.1289633  -0.2970830), wk =   0.0156250
        k(   37) = (   1.0162324   0.0000000   0.0000000), wk =   0.0156250
        k(   38) = (   1.0162324   0.0000000   0.1485415), wk =   0.0312500
        k(   39) = (   1.0162324   0.0000000  -0.2970830), wk =   0.0156250
        k(   40) = (   1.2702905   0.0644816   0.0000000), wk =   0.0312500
        k(   41) = (   1.2702905   0.0644816   0.1485415), wk =   0.0625000
        k(   42) = (   1.2702905   0.0644816  -0.2970830), wk =   0.0312500
        k(   43) = (  -0.5081162  -0.3868899   0.0000000), wk =   0.0312500
        k(   44) = (  -0.5081162  -0.3868899   0.1485415), wk =   0.0625000
        k(   45) = (  -0.5081162  -0.3868899  -0.2970830), wk =   0.0312500
        k(   46) = (  -0.2540581  -0.3224082   0.0000000), wk =   0.0312500
        k(   47) = (  -0.2540581  -0.3224082   0.1485415), wk =   0.0625000
        k(   48) = (  -0.2540581  -0.3224082  -0.2970830), wk =   0.0312500
        k(   49) = (   0.0000000  -0.2579266   0.0000000), wk =   0.0156250
        k(   50) = (   0.0000000  -0.2579266   0.1485415), wk =   0.0312500
        k(   51) = (   0.0000000  -0.2579266  -0.2970830), wk =   0.0156250
        k(   52) = (   1.5243485   0.0000000   0.0000000), wk =   0.0156250
        k(   53) = (   1.5243485   0.0000000   0.1485415), wk =   0.0312500
        k(   54) = (   1.5243485   0.0000000  -0.2970830), wk =   0.0156250
        k(   55) = (  -0.2540581  -0.4513715   0.0000000), wk =   0.0312500
        k(   56) = (  -0.2540581  -0.4513715   0.1485415), wk =   0.0625000
        k(   57) = (  -0.2540581  -0.4513715  -0.2970830), wk =   0.0312500
        k(   58) = (   0.0000000  -0.3868899   0.0000000), wk =   0.0156250
        k(   59) = (   0.0000000  -0.3868899   0.1485415), wk =   0.0312500
        k(   60) = (   0.0000000  -0.3868899  -0.2970830), wk =   0.0156250
        k(   61) = (  -2.0324647   0.0000000   0.0000000), wk =   0.0078125
        k(   62) = (  -2.0324647   0.0000000   0.1485415), wk =   0.0156250
        k(   63) = (  -2.0324647   0.0000000  -0.2970830), wk =   0.0078125

     Dense  grid:  1153415 G-vectors     FFT dimensions: ( 144, 144, 240)

     Smooth grid:   291749 G-vectors     FFT dimensions: (  90,  90, 150)

     Estimated max dynamical RAM per process >     657.19 MB

     Estimated total dynamical RAM >       6.42 GB

     Initial potential from superposition of free atoms

     starting charge   83.99353, renormalised to   84.00000
     Starting wfcs are   66 randomized atomic wfcs
     Checking if some PAW data can be deallocated... 

     total cpu time spent up to now is       21.4 secs

     Self-consistent Calculation

     iteration #  1     ecut=    80.00 Ry     beta= 0.70
     Davidson diagonalization with overlap
     ethr =  1.00E-02,  avg # of iterations =  2.0

     Threshold (ethr) on eigenvalues was too large:
     Diagonalizing with lowered threshold

     Davidson diagonalization with overlap
     ethr =  4.07E-04,  avg # of iterations =  4.0

     total cpu time spent up to now is      108.1 secs

     total energy              =   -4240.73173728 Ry
     estimated scf accuracy    <       0.43249408 Ry

     iteration #  2     ecut=    80.00 Ry     beta= 0.70
     Davidson diagonalization with overlap
     ethr =  5.15E-04,  avg # of iterations =  7.5

     total cpu time spent up to now is      169.5 secs

     total energy              =   -4240.63799257 Ry
     estimated scf accuracy    <       2.07514881 Ry

     iteration #  3     ecut=    80.00 Ry     beta= 0.70
     Davidson diagonalization with overlap
     ethr =  5.15E-04,  avg # of iterations =  5.3
     Minimization algorithm failed to find Fermi energy: reverting to bisection
     Possible cause: smearing is larger than the electronic band-gap.

     total cpu time spent up to now is      221.2 secs

     total energy              =   -4240.93538957 Ry
     estimated scf accuracy    <       0.01198866 Ry

     iteration #  4     ecut=    80.00 Ry     beta= 0.70
     Davidson diagonalization with overlap
     c_bands:  1 eigenvalues not converged
     c_bands:  2 eigenvalues not converged
     c_bands:  1 eigenvalues not converged
     c_bands:  1 eigenvalues not converged
     c_bands:  2 eigenvalues not converged
     c_bands:  1 eigenvalues not converged
     c_bands:  1 eigenvalues not converged
     c_bands:  2 eigenvalues not converged
     c_bands:  2 eigenvalues not converged
     c_bands:  2 eigenvalues not converged
     c_bands:  1 eigenvalues not converged
     c_bands:  2 eigenvalues not converged
     c_bands:  1 eigenvalues not converged
     c_bands:  2 eigenvalues not converged
     c_bands:  2 eigenvalues not converged
     c_bands:  1 eigenvalues not converged
     c_bands:  2 eigenvalues not converged
     c_bands:  1 eigenvalues not converged
     c_bands:  1 eigenvalues not converged
     c_bands:  1 eigenvalues not converged
     ethr =  1.43E-05,  avg # of iterations = 17.4

     total cpu time spent up to now is      319.9 secs

     WARNING: integrated charge=    83.99997209, expected=    84.00000000

     total energy              =   -4240.94947680 Ry
     estimated scf accuracy    <       0.07467336 Ry

     iteration #  5     ecut=    80.00 Ry     beta= 0.70
     Davidson diagonalization with overlap
     c_bands:  1 eigenvalues not converged
     ethr =  1.43E-05,  avg # of iterations =  7.4

     total cpu time spent up to now is      371.2 secs

     total energy              =   -4240.95128463 Ry
     estimated scf accuracy    <       0.01497868 Ry

     iteration #  6     ecut=    80.00 Ry     beta= 0.70
     Davidson diagonalization with overlap
     ethr =  1.43E-05,  avg # of iterations =  3.4

     total cpu time spent up to now is      412.6 secs

     total energy              =   -4240.95240120 Ry
     estimated scf accuracy    <       0.00168518 Ry

     iteration #  7     ecut=    80.00 Ry     beta= 0.70
     Davidson diagonalization with overlap
     c_bands:  1 eigenvalues not converged
     c_bands:  1 eigenvalues not converged
     ethr =  2.01E-06,  avg # of iterations = 12.7

     total cpu time spent up to now is      484.3 secs

     total energy              =   -4240.95328519 Ry
     estimated scf accuracy    <       0.00196108 Ry

     iteration #  8     ecut=    80.00 Ry     beta= 0.70
     Davidson diagonalization with overlap
     ethr =  2.01E-06,  avg # of iterations =  2.3

     total cpu time spent up to now is      522.0 secs

     total energy              =   -4240.95332830 Ry
     estimated scf accuracy    <       0.00031147 Ry

     iteration #  9     ecut=    80.00 Ry     beta= 0.70
     Davidson diagonalization with overlap
     ethr =  3.71E-07,  avg # of iterations =  6.5

     total cpu time spent up to now is      571.3 secs

     total energy              =   -4240.95342330 Ry
     estimated scf accuracy    <       0.00002669 Ry

     iteration # 10     ecut=    80.00 Ry     beta= 0.70
     Davidson diagonalization with overlap
     ethr =  3.18E-08,  avg # of iterations =  4.9

     total cpu time spent up to now is      616.3 secs

     total energy              =   -4240.95342742 Ry
     estimated scf accuracy    <       0.00000877 Ry

     iteration # 11     ecut=    80.00 Ry     beta= 0.70
     Davidson diagonalization with overlap
     ethr =  1.04E-08,  avg # of iterations =  5.5

     total cpu time spent up to now is      662.5 secs

     total energy              =   -4240.95343009 Ry
     estimated scf accuracy    <       0.00000075 Ry

     iteration # 12     ecut=    80.00 Ry     beta= 0.70
     Davidson diagonalization with overlap
     ethr =  8.93E-10,  avg # of iterations =  5.0

     total cpu time spent up to now is      707.3 secs

     total energy              =   -4240.95343029 Ry
     estimated scf accuracy    <       0.00000001 Ry

     iteration # 13     ecut=    80.00 Ry     beta= 0.70
     Davidson diagonalization with overlap
     ethr =  1.70E-11,  avg # of iterations = 10.0

     total cpu time spent up to now is      779.4 secs

     total energy              =   -4240.95343032 Ry
     estimated scf accuracy    <       0.00000004 Ry

     iteration # 14     ecut=    80.00 Ry     beta= 0.70
     Davidson diagonalization with overlap
     ethr =  1.70E-11,  avg # of iterations =  3.5

     total cpu time spent up to now is      821.2 secs

     total energy              =   -4240.95343032 Ry
     estimated scf accuracy    <          4.0E-09 Ry

     iteration # 15     ecut=    80.00 Ry     beta= 0.70
     Davidson diagonalization with overlap
     ethr =  4.72E-12,  avg # of iterations =  6.2

     total cpu time spent up to now is      872.8 secs

     total energy              =   -4240.95343033 Ry
     estimated scf accuracy    <          1.7E-09 Ry

     iteration # 16     ecut=    80.00 Ry     beta= 0.70
     Davidson diagonalization with overlap
     ethr =  2.02E-12,  avg # of iterations =  1.1

     total cpu time spent up to now is      907.1 secs

     total energy              =   -4240.95343033 Ry
     estimated scf accuracy    <          6.3E-10 Ry

     iteration # 17     ecut=    80.00 Ry     beta= 0.70
     Davidson diagonalization with overlap
     ethr =  7.48E-13,  avg # of iterations =  5.2

     total cpu time spent up to now is      951.3 secs

     End of self-consistent calculation

          k = 0.0000 0.0000 0.0000 ( 36359 PWs)   bands (ev):

   -44.1348 -44.1347 -22.2636 -22.2635 -22.1690 -22.1690 -22.0635 -22.0634
    -7.8117  -7.4014  -7.1330  -6.8446  -6.3519  -5.4017  -4.9668  -4.8502
    -4.7985  -3.8427   0.3614   0.7487   0.7560   1.1102   1.4800   1.5255
     2.3153   2.3581   2.6645   2.7211   2.9584   3.0124   3.2237   3.4331
     3.6711   3.7643   3.9482   4.0640   4.2243   4.3351   4.3431   4.6646
     4.8909   5.5103   5.6307   5.7921   5.8381   5.9617   6.2031   6.8332
     6.9733   7.2722

          k = 0.0000 0.0000 0.1485 ( 36415 PWs)   bands (ev):

   -44.1348 -44.1348 -22.2636 -22.2635 -22.1690 -22.1690 -22.0635 -22.0634
    -7.7755  -7.5161  -7.0305  -6.8610  -6.2708  -5.6759  -4.8535  -4.8075
    -4.6631  -3.9591   0.4236   0.7920   0.9017   1.0192   1.0711   1.9308
     2.0717   2.3437   2.5483   2.8199   2.9451   3.1216   3.3822   3.3970
     3.6925   3.8318   3.9321   4.0642   4.1647   4.3534   4.3616   4.6688
     4.7960   5.0052   5.7934   5.9631   5.9704   6.0002   6.5496   6.6310
     6.7970   7.2096

          k = 0.0000 0.0000-0.2971 ( 36410 PWs)   bands (ev):

   -44.1348 -44.1348 -22.2635 -22.2635 -22.1690 -22.1690 -22.0634 -22.0634
    -7.6710  -7.6710  -6.9176  -6.9176  -6.0290  -6.0290  -4.8295  -4.8295
    -4.2647  -4.2647   0.6345   0.6345   0.9139   0.9139   1.3699   1.3699
     2.4256   2.4256   2.6523   2.6523   2.9017   2.9017   3.4771   3.4771
     3.8822   3.8822   4.0001   4.0001   4.3465   4.3465   4.3921   4.3921
     4.6983   4.6983   5.9440   5.9440   6.2226   6.2226   6.4093   6.4093
     7.0243   7.0244

          k = 0.2541 0.0645 0.0000 ( 36396 PWs)   bands (ev):

   -44.1344 -44.1344 -22.2616 -22.2616 -22.1788 -22.1788 -22.0623 -22.0622
    -7.6947  -7.2904  -7.0605  -6.7972  -6.2901  -5.3579  -4.9778  -4.8076
    -4.7550  -3.9923   0.4477   0.8771   0.8860   1.2278   1.3151   1.3890
     1.8443   1.8683   2.0729   2.5606   2.5875   3.1353   3.3371   3.7154
     3.7406   3.7605   3.7881   3.8137   4.0192   4.2478   4.2744   4.2785
     4.4868   4.5956   5.7958   5.9793   6.2301   6.5738   6.6034   6.7812
     7.0085   7.1673

          k = 0.2541 0.0645 0.1485 ( 36423 PWs)   bands (ev):

   -44.1344 -44.1344 -22.2616 -22.2616 -22.1788 -22.1788 -22.0623 -22.0622
    -7.6593  -7.4051  -6.9636  -6.8120  -6.2062  -5.6219  -4.8295  -4.7660
    -4.6781  -4.0852   0.4977   0.9221   0.9486   0.9671   1.1777   1.4734
     1.7938   2.1613   2.2835   2.5421   2.5706   2.9455   3.3229   3.3399
     3.5787   3.7546   3.9234   3.9306   4.0240   4.1412   4.3060   4.3303
     4.6819   4.8883   5.8340   5.9102   6.1799   6.2659   6.4302   6.7277
     7.2297   7.3039

          k = 0.2541 0.0645-0.2971 ( 36436 PWs)   bands (ev):

   -44.1344 -44.1344 -22.2616 -22.2616 -22.1788 -22.1788 -22.0622 -22.0622
    -7.5570  -7.5570  -6.8623  -6.8623  -5.9644  -5.9644  -4.7932  -4.7932
    -4.3383  -4.3383   0.6665   0.6665   1.0199   1.0199   1.1918   1.1918
     2.1849   2.1849   2.4752   2.4752   2.6736   2.6736   3.1716   3.1716
     3.6242   3.6242   3.9267   3.9267   4.0960   4.0960   4.3354   4.3354
     5.0570   5.0570   5.7724   5.7724   6.1339   6.1339   6.4467   6.4467
     7.4162   7.4162

          k = 0.5081 0.1290 0.0000 ( 36499 PWs)   bands (ev):

   -44.1335 -44.1335 -22.2569 -22.2569 -22.2023 -22.2023 -22.0594 -22.0594
    -7.3608  -6.9681  -6.8895  -6.6715  -6.0987  -5.2613  -5.0713  -4.6966
    -4.6477  -4.4400   0.4693   0.5919   0.6534   1.2171   1.2265   1.4601
     1.6769   1.6930   1.9988   2.1015   2.1677   2.2414   2.4022   3.3611
     3.4407   3.5045   3.5119   3.5915   3.7714   3.8853   3.9146   4.1729
     4.4485   5.1036   5.5446   6.0320   6.0618   6.5817   6.5983   6.9312
     7.4404   7.5652

          k = 0.5081 0.1290 0.1485 ( 36476 PWs)   bands (ev):

   -44.1335 -44.1335 -22.2569 -22.2569 -22.2023 -22.2023 -22.0594 -22.0594
    -7.3281  -7.0938  -6.7937  -6.6827  -6.0128  -5.4915  -4.8965  -4.6770
    -4.6576  -4.4693   0.4501   0.6579   0.7667   1.0219   1.2550   1.3916
     1.4542   1.5668   2.0221   2.0944   2.3398   2.4710   2.7999   3.3837
     3.4202   3.4470   3.5212   3.5824   3.6980   3.7486   3.8480   4.2281
     4.3278   4.5182   6.1208   6.1646   6.2977   6.5839   6.6407   6.7966
     7.2782   7.5042

          k = 0.5081 0.1290-0.2971 ( 36466 PWs)   bands (ev):

   -44.1335 -44.1335 -22.2569 -22.2569 -22.2023 -22.2023 -22.0594 -22.0594
    -7.2341  -7.2341  -6.7195  -6.7195  -5.7865  -5.7865  -4.7531  -4.7531
    -4.5570  -4.5570   0.5439   0.5439   1.0410   1.0410   1.1238   1.1238
     1.4097   1.4097   2.0586   2.0586   2.7173   2.7173   3.1539   3.1539
     3.3963   3.3963   3.5524   3.5524   3.7074   3.7074   3.8286   3.8286
     4.3095   4.3095   6.3626   6.3626   6.5561   6.5561   6.8215   6.8215
     7.1291   7.1291

          k = 0.7622 0.1934 0.0000 ( 36521 PWs)   bands (ev):

   -44.1326 -44.1326 -22.2521 -22.2521 -22.2258 -22.2258 -22.0566 -22.0565
    -6.9125  -6.7338  -6.4727  -6.4572  -5.8025  -5.3717  -5.2254  -5.0999
    -4.5728  -4.5368   0.0141   0.0779   0.5418   1.0313   1.0571   1.2643
     1.4812   1.6028   1.9577   2.0549   2.2521   2.3831   2.4129   2.7842
     2.8713   3.2651   3.3336   3.4341   3.6111   3.6907   3.7027   3.7942
     3.8649   4.5627   5.8766   6.2974   6.3588   6.8239   6.8279   6.9243
     7.2897   7.6103

          k = 0.7622 0.1934 0.1485 ( 36503 PWs)   bands (ev):

   -44.1326 -44.1326 -22.2521 -22.2521 -22.2258 -22.2258 -22.0566 -22.0566
    -6.8905  -6.7649  -6.4742  -6.4611  -5.7381  -5.4422  -5.1982  -5.1151
    -4.5638  -4.5390   0.0348   0.2321   0.4136   0.9200   1.0299   1.2259
     1.4945   1.6311   1.8711   2.0647   2.1324   2.6264   2.6909   2.8354
     2.8838   3.0959   3.2716   3.3911   3.5261   3.6215   3.6524   3.9303
     3.9744   4.5554   5.6302   6.3312   6.6349   6.7219   6.8873   6.9670
     7.0664   7.5639

          k = 0.7622 0.1934-0.2971 ( 36522 PWs)   bands (ev):

   -44.1326 -44.1326 -22.2521 -22.2521 -22.2258 -22.2258 -22.0566 -22.0566
    -6.8322  -6.8322  -6.4699  -6.4699  -5.5910  -5.5910  -5.1532  -5.1532
    -4.5482  -4.5482   0.1815   0.1815   0.5743   0.5743   1.0817   1.0817
     1.5689   1.5689   2.0122   2.0122   2.3733   2.3733   2.8142   2.8142
     2.9915   2.9915   3.3341   3.3341   3.5926   3.5926   3.8679   3.8679
     4.1053   4.1053   6.1164   6.1164   6.4362   6.4362   6.9593   6.9593
     7.4090   7.4090

          k =-1.0162-0.2579 0.0000 ( 36506 PWs)   bands (ev):

   -44.1322 -44.1322 -22.2500 -22.2500 -22.2356 -22.2356 -22.0554 -22.0554
    -6.7081  -6.6881  -5.9534  -5.9423  -5.8937  -5.8857  -5.3639  -5.3633
    -4.5157  -4.4912  -0.0001   0.0231   0.3260   0.3473   1.0123   1.0215
     1.4683   1.6709   2.2344   2.3882   2.3960   2.4051   2.7961   2.8051
     2.8143   2.8539   3.2211   3.2615   3.3170   3.4257   3.5152   3.7290
     3.7528   4.0560   6.5188   6.5425   6.5523   6.6313   7.0101   7.1052
     7.1126   7.1291

          k =-1.0162-0.2579 0.1485 ( 36506 PWs)   bands (ev):

   -44.1322 -44.1322 -22.2500 -22.2500 -22.2356 -22.2356 -22.0554 -22.0554
    -6.7044  -6.6901  -5.9731  -5.9649  -5.8728  -5.8675  -5.3601  -5.3597
    -4.5157  -4.4984  -0.0970  -0.0898   0.5484   0.5553   1.0123   1.0308
     1.4647   1.5942   1.9761   2.0723   2.3763   2.3971   2.7104   2.7110
     2.9415   3.0221   3.1134   3.1952   3.5548   3.5729   3.6681   3.7543
     4.0316   4.1317   5.9923   6.0075   6.4724   6.5478   7.0764   7.1029
     7.3107   7.3556

          k =-1.0162-0.2579-0.2971 ( 36528 PWs)   bands (ev):

   -44.1322 -44.1322 -22.2500 -22.2500 -22.2356 -22.2356 -22.0554 -22.0554
    -6.6964  -6.6964  -5.9839  -5.9839  -5.8568  -5.8568  -5.3562  -5.3562
    -4.5108  -4.5108  -0.1566  -0.1566   0.8203   0.8203   0.9471   0.9471
     1.5338   1.5338   1.7259   1.7259   2.3761   2.3761   2.7714   2.7714
     2.9114   2.9114   3.1642   3.1642   3.6302   3.6302   3.8017   3.8017
     4.4001   4.4001   5.5286   5.5286   6.4275   6.4275   7.1127   7.1127
     7.4090   7.4090

          k = 0.5081 0.0000 0.0000 ( 36503 PWs)   bands (ev):

   -44.1335 -44.1335 -22.2569 -22.2569 -22.2023 -22.2023 -22.0594 -22.0594
    -7.3652  -6.9688  -6.8906  -6.6669  -6.0950  -5.2616  -5.0683  -4.6912
    -4.6542  -4.4396   0.4751   0.5975   0.6424   1.2048   1.2122   1.4370
     1.6814   1.6896   1.9849   2.1169   2.1578   2.2221   2.4004   3.3496
     3.4666   3.4750   3.5665   3.5907   3.7777   3.8998   3.9379   4.2100
     4.4505   5.1003   5.5503   6.0102   6.0976   6.5428   6.5469   6.9668
     7.4577   7.5786

          k = 0.5081 0.0000 0.1485 ( 36453 PWs)   bands (ev):

   -44.1335 -44.1335 -22.2569 -22.2569 -22.2023 -22.2023 -22.0594 -22.0594
    -7.3324  -7.0966  -6.7918  -6.6781  -6.0103  -5.4916  -4.8918  -4.6787
    -4.6573  -4.4703   0.4517   0.6531   0.7680   1.0243   1.2408   1.4064
     1.4106   1.5492   2.0189   2.1031   2.3589   2.4290   2.7954   3.3745
     3.4456   3.4695   3.4985   3.5908   3.6922   3.8191   3.8376   4.2670
     4.3403   4.5125   6.1156   6.1746   6.3148   6.5351   6.6040   6.8284
     7.2997   7.5121

          k = 0.5081 0.0000-0.2971 ( 36452 PWs)   bands (ev):

   -44.1335 -44.1335 -22.2569 -22.2569 -22.2023 -22.2023 -22.0594 -22.0594
    -7.2380  -7.2380  -6.7154  -6.7154  -5.7858  -5.7858  -4.7491  -4.7491
    -4.5599  -4.5599   0.5409   0.5409   1.0414   1.0414   1.1356   1.1356
     1.3705   1.3705   2.0605   2.0605   2.7083   2.7083   3.1418   3.1418
     3.3968   3.3968   3.5738   3.5738   3.7337   3.7337   3.8288   3.8288
     4.3307   4.3307   6.3784   6.3784   6.5202   6.5202   6.8385   6.8385
     7.1304   7.1304

          k = 0.7622 0.0645 0.0000 ( 36505 PWs)   bands (ev):

   -44.1326 -44.1326 -22.2521 -22.2521 -22.2258 -22.2258 -22.0566 -22.0565
    -6.9212  -6.7316  -6.4743  -6.4490  -5.8023  -5.3683  -5.2261  -5.0992
    -4.5638  -4.5467   0.0098   0.0883   0.5587   1.0452   1.0630   1.2785
     1.4431   1.5640   1.9299   2.0728   2.2582   2.3551   2.3643   2.7584
     2.8593   3.3153   3.3556   3.4631   3.6227   3.6280   3.7168   3.8274
     3.8819   4.5981   5.8742   6.2973   6.3442   6.7993   6.8813   6.8826
     7.3068   7.6235

          k = 0.7622 0.0645 0.1485 ( 36509 PWs)   bands (ev):

   -44.1326 -44.1326 -22.2521 -22.2521 -22.2258 -22.2258 -22.0566 -22.0566
    -6.8986  -6.7661  -6.4717  -6.4533  -5.7385  -5.4414  -5.1969  -5.1142
    -4.5576  -4.5461   0.0385   0.2335   0.4229   0.9220   1.0452   1.2414
     1.4610   1.6309   1.8991   1.9945   2.0618   2.6445   2.6749   2.8204
     2.8665   3.0986   3.3284   3.4003   3.5262   3.6183   3.6591   3.9536
     4.0038   4.5528   5.6557   6.3109   6.6451   6.7212   6.9011   6.9655
     7.0410   7.5831

          k = 0.7622 0.0645-0.2971 ( 36472 PWs)   bands (ev):

   -44.1326 -44.1326 -22.2521 -22.2521 -22.2258 -22.2258 -22.0566 -22.0566
    -6.8380  -6.8380  -6.4632  -6.4632  -5.5917  -5.5917  -5.1516  -5.1516
    -4.5485  -4.5485   0.1884   0.1884   0.5678   0.5678   1.1049   1.1049
     1.5625   1.5625   1.9626   1.9626   2.3475   2.3475   2.8150   2.8150
     2.9789   2.9789   3.3944   3.3944   3.5897   3.5897   3.8544   3.8544
     4.1256   4.1256   6.1417   6.1417   6.4370   6.4370   6.9266   6.9266
     7.4363   7.4363

          k = 1.0162 0.1290 0.0000 ( 36514 PWs)   bands (ev):

   -44.1322 -44.1322 -22.2500 -22.2500 -22.2356 -22.2356 -22.0554 -22.0554
    -6.7082  -6.6881  -5.9531  -5.9425  -5.8938  -5.8857  -5.3639  -5.3633
    -4.5157  -4.4912  -0.0059   0.0291   0.3216   0.3517   1.0061   1.0289
     1.4741   1.6618   2.2343   2.3872   2.3877   2.4070   2.7914   2.8048
     2.8187   2.8738   3.2381   3.2447   3.3034   3.4147   3.5515   3.7090
     3.7387   4.0692   6.5089   6.5473   6.5530   6.6378   7.0275   7.1065
     7.1147   7.1174

          k = 1.0162 0.1290 0.1485 ( 36524 PWs)   bands (ev):

   -44.1322 -44.1322 -22.2500 -22.2500 -22.2356 -22.2356 -22.0554 -22.0554
    -6.7044  -6.6901  -5.9730  -5.9651  -5.8727  -5.8675  -5.3602  -5.3597
    -4.5157  -4.4984  -0.0992  -0.0879   0.5496   0.5547   1.0149   1.0287
     1.4699   1.5892   1.9881   2.0562   2.3748   2.3921   2.6677   2.7607
     2.9556   3.0337   3.1011   3.1877   3.5303   3.6095   3.6638   3.7434
     4.0127   4.1512   5.9843   6.0188   6.4693   6.5505   7.0823   7.1018
     7.3174   7.3494

          k = 1.0162 0.1290-0.2971 ( 36516 PWs)   bands (ev):

   -44.1322 -44.1322 -22.2500 -22.2500 -22.2356 -22.2356 -22.0554 -22.0554
    -6.6964  -6.6964  -5.9839  -5.9839  -5.8568  -5.8568  -5.3562  -5.3562
    -4.5108  -4.5108  -0.1568  -0.1568   0.8207   0.8207   0.9472   0.9472
     1.5347   1.5347   1.7267   1.7267   2.3669   2.3669   2.7557   2.7557
     2.9572   2.9572   3.1407   3.1407   3.6340   3.6340   3.7976   3.7976
     4.4006   4.4006   5.5308   5.5308   6.4269   6.4269   7.1144   7.1144
     7.4095   7.4095

          k =-0.7622-0.3224 0.0000 ( 36511 PWs)   bands (ev):

   -44.1326 -44.1326 -22.2521 -22.2521 -22.2258 -22.2258 -22.0566 -22.0565
    -6.8989  -6.7380  -6.4704  -6.4687  -5.8029  -5.3765  -5.2244  -5.1008
    -4.5800  -4.5282   0.0204   0.0635   0.5184   1.0000   1.0737   1.2466
     1.5034   1.6663   2.0151   2.0324   2.2781   2.4090   2.4444   2.8206
     2.8847   3.2027   3.3159   3.4384   3.5767   3.6638   3.6711   3.8236
     3.8582   4.5034   5.8800   6.2870   6.4004   6.7418   6.8720   6.9906
     7.2567   7.5947

          k =-0.7622-0.3224 0.1485 ( 36492 PWs)   bands (ev):

   -44.1326 -44.1326 -22.2521 -22.2521 -22.2258 -22.2258 -22.0566 -22.0566
    -6.8780  -6.7638  -6.4781  -6.4720  -5.7375  -5.4434  -5.2000  -5.1164
    -4.5687  -4.5330   0.0289   0.2317   0.3997   0.9100   1.0245   1.2051
     1.5322   1.6333   1.8523   2.1689   2.2179   2.6097   2.6952   2.8553
     2.9012   3.1141   3.2030   3.3763   3.4767   3.6090   3.6896   3.8827
     3.9421   4.5577   5.5961   6.3640   6.6088   6.7208   6.8594   7.0077
     7.0949   7.5273

          k =-0.7622-0.3224-0.2971 ( 36508 PWs)   bands (ev):

   -44.1326 -44.1326 -22.2521 -22.2521 -22.2258 -22.2258 -22.0566 -22.0566
    -6.8236  -6.8236  -6.4797  -6.4797  -5.5899  -5.5899  -5.1554  -5.1554
    -4.5478  -4.5478   0.1719   0.1719   0.5831   0.5831   1.0545   1.0545
     1.5771   1.5771   2.0676   2.0676   2.4294   2.4294   2.8141   2.8141
     3.0099   3.0099   3.2486   3.2486   3.5916   3.5916   3.8722   3.8722
     4.0861   4.0861   6.0834   6.0834   6.4338   6.4338   7.0136   7.0136
     7.3624   7.3624

          k =-0.5081-0.2579 0.0000 ( 36480 PWs)   bands (ev):

   -44.1335 -44.1335 -22.2569 -22.2569 -22.2023 -22.2023 -22.0594 -22.0594
    -7.3499  -6.9663  -6.8874  -6.6824  -6.1078  -5.2606  -5.0785  -4.7047
    -4.6367  -4.4411   0.4558   0.5897   0.6641   1.2283   1.2912   1.5160
     1.6675   1.7064   2.0343   2.0763   2.1765   2.2831   2.4037   3.3856
     3.3856   3.4439   3.5399   3.5511   3.7468   3.7950   3.9304   4.0969
     4.4397   5.1094   5.5330   5.9689   6.0938   6.6805   6.7192   6.8464
     7.3871   7.5355

          k =-0.5081-0.2579 0.1485 ( 36485 PWs)   bands (ev):

   -44.1335 -44.1335 -22.2569 -22.2569 -22.2023 -22.2023 -22.0594 -22.0594
    -7.3175  -7.0868  -6.7990  -6.6937  -6.0188  -5.4914  -4.9076  -4.6733
    -4.6580  -4.4668   0.4467   0.6682   0.7618   1.0163   1.2928   1.3909
     1.5264   1.6199   2.0227   2.0806   2.3234   2.5362   2.8106   3.3308
     3.4041   3.4420   3.5448   3.5528   3.6205   3.7224   3.8424   4.1491
     4.2879   4.5286   6.1065   6.1607   6.2643   6.6869   6.7266   6.7440
     7.2201   7.4881

          k =-0.5081-0.2579-0.2971 ( 36478 PWs)   bands (ev):

   -44.1335 -44.1335 -22.2569 -22.2569 -22.2023 -22.2023 -22.0594 -22.0594
    -7.2246  -7.2246  -6.7295  -6.7295  -5.7881  -5.7881  -4.7624  -4.7624
    -4.5506  -4.5506   0.5506   0.5506   1.0393   1.0393   1.1038   1.1038
     1.5050   1.5050   2.0504   2.0504   2.7432   2.7432   3.1751   3.1751
     3.3845   3.3845   3.4779   3.4779   3.6861   3.6861   3.8228   3.8228
     4.2585   4.2585   6.3256   6.3256   6.6324   6.6324   6.7854   6.7854
     7.1332   7.1332

          k =-0.2541-0.1934 0.0000 ( 36410 PWs)   bands (ev):

   -44.1344 -44.1344 -22.2616 -22.2616 -22.1788 -22.1788 -22.0623 -22.0622
    -7.6871  -7.2891  -7.0542  -6.8053  -6.3035  -5.3590  -4.9855  -4.8155
    -4.7436  -3.9933   0.4742   0.8847   0.9563   1.2558   1.3122   1.4225
     1.8673   1.8928   2.0743   2.5275   2.5765   3.1995   3.2999   3.6440
     3.6736   3.7262   3.7678   3.8696   3.8764   4.2001   4.2444   4.2682
     4.3954   4.6048   5.8500   6.0053   6.2920   6.5953   6.6279   6.7940
     6.9932   7.0868

          k =-0.2541-0.1934 0.1485 ( 36427 PWs)   bands (ev):

   -44.1344 -44.1344 -22.2616 -22.2616 -22.1788 -22.1788 -22.0623 -22.0622
    -7.6519  -7.4003  -6.9634  -6.8197  -6.2164  -5.6235  -4.8478  -4.7596
    -4.6716  -4.0852   0.5216   0.9420   0.9651   1.0330   1.2108   1.4883
     1.7996   2.1643   2.3102   2.5247   2.5545   2.9286   3.3430   3.3800
     3.5840   3.6502   3.7755   3.8972   3.9797   4.1192   4.2647   4.2795
     4.6747   4.8808   5.8206   5.9329   6.1698   6.3334   6.5004   6.7303
     7.1889   7.2934

          k =-0.2541-0.1934-0.2971 ( 36422 PWs)   bands (ev):

   -44.1344 -44.1344 -22.2616 -22.2616 -22.1788 -22.1788 -22.0622 -22.0622
    -7.5503  -7.5503  -6.8679  -6.8679  -5.9690  -5.9690  -4.7982  -4.7982
    -4.3359  -4.3359   0.6851   0.6851   1.0814   1.0814   1.2003   1.2003
     2.1862   2.1862   2.4684   2.4684   2.6721   2.6721   3.1923   3.1923
     3.5945   3.5945   3.8172   3.8172   4.0778   4.0778   4.2816   4.2816
     5.0655   5.0655   5.7339   5.7339   6.1416   6.1416   6.5245   6.5245
     7.3961   7.3961

          k = 0.0000-0.1290 0.0000 ( 36417 PWs)   bands (ev):

   -44.1348 -44.1347 -22.2636 -22.2635 -22.1690 -22.1690 -22.0635 -22.0634
    -7.8077  -7.4007  -7.1287  -6.8490  -6.3603  -5.4028  -4.9713  -4.8562
    -4.7904  -3.8433   0.3813   0.7533   0.7973   1.1189   1.4911   1.5528
     2.3166   2.3587   2.6635   2.7281   2.9582   3.0177   3.2616   3.4195
     3.6177   3.7533   3.8349   4.0134   4.2244   4.2798   4.2959   4.6645
     4.8804   5.4745   5.6547   5.7996   5.8569   6.0095   6.2524   6.8232
     6.9735   7.2420

          k = 0.0000-0.1290 0.1485 ( 36419 PWs)   bands (ev):

   -44.1348 -44.1347 -22.2636 -22.2635 -22.1690 -22.1690 -22.0635 -22.0634
    -7.7717  -7.5136  -7.0296  -6.8650  -6.2775  -5.6772  -4.8642  -4.8030
    -4.6600  -3.9591   0.4422   0.8338   0.9119   1.0226   1.0917   1.9369
     2.0885   2.3452   2.5501   2.8232   2.9454   3.1323   3.3599   3.4062
     3.6833   3.8218   3.8270   3.9909   4.1622   4.3006   4.3169   4.6685
     4.7897   4.9958   5.8047   5.9808   6.0051   6.0083   6.5723   6.6263
     6.7978   7.1933

          k = 0.0000-0.1290-0.2971 ( 36464 PWs)   bands (ev):

   -44.1348 -44.1348 -22.2635 -22.2635 -22.1690 -22.1690 -22.0634 -22.0634
    -7.6676  -7.6676  -6.9201  -6.9201  -6.0323  -6.0323  -4.8320  -4.8320
    -4.2636  -4.2636   0.6556   0.6556   0.9370   0.9370   1.3774   1.3774
     2.4273   2.4273   2.6633   2.6633   2.9033   2.9033   3.4612   3.4612
     3.8302   3.8302   3.9930   3.9930   4.2503   4.2503   4.4100   4.4100
     4.6967   4.6967   5.9532   5.9532   6.2405   6.2405   6.4117   6.4117
     7.0231   7.0231

          k = 1.0162 0.0000 0.0000 ( 36499 PWs)   bands (ev):

   -44.1322 -44.1322 -22.2500 -22.2500 -22.2356 -22.2356 -22.0554 -22.0554
    -6.7082  -6.6881  -5.9528  -5.9428  -5.8938  -5.8857  -5.3639  -5.3632
    -4.5157  -4.4912  -0.0102   0.0335   0.3183   0.3552   1.0027   1.0335
     1.4807   1.6518   2.2339   2.3805   2.3864   2.4087   2.7875   2.8036
     2.8220   2.8935   3.2518   3.2588   3.2673   3.3994   3.6010   3.6749
     3.7263   4.0813   6.5024   6.5428   6.5602   6.6437   7.0531   7.0976
     7.1079   7.1168

          k = 1.0162 0.0000 0.1485 ( 36485 PWs)   bands (ev):

   -44.1322 -44.1322 -22.2500 -22.2500 -22.2356 -22.2356 -22.0554 -22.0554
    -6.7044  -6.6901  -5.9728  -5.9652  -5.8727  -5.8675  -5.3602  -5.3596
    -4.5157  -4.4984  -0.1008  -0.0866   0.5513   0.5536   1.0192   1.0248
     1.4757   1.5836   2.0145   2.0254   2.3795   2.3811   2.6536   2.7787
     2.9772   3.0627   3.0666   3.1805   3.5202   3.6293   3.6672   3.7271
     3.9983   4.1664   5.9800   6.0264   6.4664   6.5529   7.0902   7.0987
     7.3308   7.3365

          k = 1.0162 0.0000-0.2971 ( 36514 PWs)   bands (ev):

   -44.1322 -44.1322 -22.2500 -22.2500 -22.2356 -22.2356 -22.0554 -22.0554
    -6.6964  -6.6964  -5.9839  -5.9839  -5.8568  -5.8568  -5.3562  -5.3562
    -4.5108  -4.5108  -0.1569  -0.1569   0.8212   0.8212   0.9473   0.9473
     1.5355   1.5355   1.7275   1.7275   2.3579   2.3579   2.7447   2.7447
     3.0129   3.0129   3.1024   3.1024   3.6378   3.6378   3.7935   3.7935
     4.4010   4.4010   5.5331   5.5331   6.4264   6.4264   7.1161   7.1161
     7.4101   7.4101

          k = 1.2703 0.0645 0.0000 ( 36468 PWs)   bands (ev):

   -44.1326 -44.1326 -22.2521 -22.2521 -22.2258 -22.2258 -22.0566 -22.0565
    -6.8882  -6.7421  -6.4768  -6.4688  -5.8032  -5.3799  -5.2237  -5.1015
    -4.5837  -4.5236   0.0249   0.0536   0.5022   0.9839   1.0854   1.2348
     1.5078   1.7122   2.0179   2.0722   2.3114   2.4273   2.4347   2.8480
     2.8897   3.1511   3.3401   3.4869   3.5249   3.5699   3.6787   3.7751
     3.9377   4.4504   5.8825   6.2825   6.4354   6.6826   6.9062   7.0490
     7.2209   7.5944

          k = 1.2703 0.0645 0.1485 ( 36490 PWs)   bands (ev):

   -44.1326 -44.1326 -22.2521 -22.2521 -22.2258 -22.2258 -22.0566 -22.0566
    -6.8682  -6.7638  -6.4817  -6.4791  -5.7371  -5.4443  -5.2012  -5.1173
    -4.5712  -4.5297   0.0242   0.2325   0.3893   0.8999   1.0282   1.1912
     1.5533   1.6367   1.8453   2.2446   2.2835   2.5948   2.6892   2.8649
     2.9148   3.1381   3.1617   3.3615   3.4479   3.5611   3.7559   3.8225
     3.9268   4.5582   5.5736   6.3922   6.5792   6.7193   6.8457   7.0533
     7.1091   7.4941

          k = 1.2703 0.0645-0.2971 ( 36480 PWs)   bands (ev):

   -44.1326 -44.1326 -22.2521 -22.2521 -22.2258 -22.2258 -22.0566 -22.0566
    -6.8172  -6.8172  -6.4870  -6.4870  -5.5891  -5.5891  -5.1570  -5.1570
    -4.5475  -4.5475   0.1651   0.1651   0.5890   0.5890   1.0384   1.0384
     1.5829   1.5829   2.0950   2.0950   2.4870   2.4870   2.8183   2.8183
     3.0223   3.0223   3.1805   3.1805   3.5893   3.5893   3.8630   3.8630
     4.0820   4.0820   6.0617   6.0617   6.4315   6.4315   7.0610   7.0610
     7.3203   7.3203

          k =-0.5081-0.3869 0.0000 ( 36463 PWs)   bands (ev):

   -44.1335 -44.1335 -22.2569 -22.2569 -22.2023 -22.2023 -22.0594 -22.0594
    -7.3384  -6.9645  -6.8863  -6.6923  -6.1172  -5.2599  -5.0857  -4.7097
    -4.6288  -4.4422   0.4428   0.5973   0.6590   1.2389   1.3816   1.5705
     1.6614   1.7126   2.0617   2.0732   2.1997   2.2931   2.4003   3.2692
     3.4089   3.4492   3.4709   3.6063   3.7018   3.7651   3.8457   4.0920
     4.4276   5.1116   5.5237   5.8776   6.1591   6.7612   6.7918   6.8417
     7.3082   7.5230

          k =-0.5081-0.3869 0.1485 ( 36477 PWs)   bands (ev):

   -44.1335 -44.1335 -22.2569 -22.2569 -22.2023 -22.2023 -22.0594 -22.0594
    -7.3063  -7.0796  -6.8054  -6.7043  -6.0248  -5.4912  -4.9181  -4.6709
    -4.6577  -4.4644   0.4436   0.6782   0.7533   1.0113   1.3353   1.3946
     1.6014   1.6892   2.0148   2.0705   2.3204   2.5746   2.8232   3.2248
     3.4042   3.4410   3.4810   3.5676   3.6134   3.7170   3.8019   4.1143
     4.2278   4.5371   6.0548   6.1827   6.2458   6.6462   6.7961   6.8686
     7.1449   7.4854

          k =-0.5081-0.3869-0.2971 ( 36492 PWs)   bands (ev):

   -44.1335 -44.1335 -22.2569 -22.2569 -22.2023 -22.2023 -22.0594 -22.0594
    -7.2146  -7.2146  -6.7401  -6.7401  -5.7896  -5.7896  -4.7712  -4.7712
    -4.5446  -4.5446   0.5569   0.5569   1.0369   1.0369   1.0896   1.0896
     1.6131   1.6131   2.0317   2.0317   2.7772   2.7772   3.1550   3.1550
     3.3521   3.3521   3.4393   3.4393   3.6841   3.6841   3.8113   3.8113
     4.2094   4.2094   6.2903   6.2903   6.6689   6.6689   6.7785   6.7785
     7.1525   7.1525

          k =-0.2541-0.3224 0.0000 ( 36485 PWs)   bands (ev):

   -44.1344 -44.1344 -22.2616 -22.2616 -22.1788 -22.1788 -22.0623 -22.0622
    -7.6761  -7.2873  -7.0459  -6.8156  -6.3233  -5.3604  -4.9970  -4.8201
    -4.7333  -3.9947   0.5001   0.8968   1.0781   1.3045   1.3056   1.4940
     1.9025   1.9299   2.0746   2.4529   2.5320   3.2472   3.3087   3.4702
     3.6071   3.6301   3.7477   3.8264   3.9129   4.1365   4.1516   4.2359
     4.3542   4.5961   5.9357   6.0296   6.3496   6.5846   6.7091   6.8103
     6.9210   7.0197

          k =-0.2541-0.3224 0.1485 ( 36445 PWs)   bands (ev):

   -44.1344 -44.1344 -22.2616 -22.2616 -22.1788 -22.1788 -22.0623 -22.0622
    -7.6412  -7.3935  -6.9639  -6.8299  -6.2311  -5.6256  -4.8686  -4.7545
    -4.6634  -4.0851   0.5437   0.9542   0.9893   1.1613   1.2858   1.5117
     1.8146   2.1675   2.3489   2.4573   2.5200   2.9118   3.3746   3.4118
     3.4643   3.5426   3.6773   3.8866   3.9131   4.0768   4.1801   4.2360
     4.6976   4.8547   5.8068   5.9651   6.1658   6.3599   6.5986   6.7389
     7.1456   7.2762

          k =-0.2541-0.3224-0.2971 ( 36442 PWs)   bands (ev):

   -44.1344 -44.1344 -22.2616 -22.2616 -22.1788 -22.1788 -22.0622 -22.0622
    -7.5407  -7.5407  -6.8762  -6.8762  -5.9754  -5.9754  -4.8053  -4.8053
    -4.3325  -4.3325   0.7002   0.7002   1.1888   1.1888   1.2239   1.2239
     2.1907   2.1907   2.4381   2.4381   2.6657   2.6657   3.2257   3.2257
     3.4432   3.4432   3.7945   3.7945   4.0359   4.0359   4.2163   4.2163
     5.0790   5.0790   5.6916   5.6916   6.1260   6.1260   6.6249   6.6249
     7.3712   7.3713

          k = 0.0000-0.2579 0.0000 ( 36445 PWs)   bands (ev):

   -44.1348 -44.1348 -22.2636 -22.2635 -22.1690 -22.1690 -22.0635 -22.0634
    -7.7979  -7.3990  -7.1185  -6.8588  -6.3815  -5.4053  -4.9833  -4.8623
    -4.7781  -3.8447   0.4197   0.7650   0.9091   1.1662   1.5168   1.6128
     2.3199   2.3613   2.6610   2.7459   2.9574   3.0410   3.3182   3.3651
     3.4103   3.6544   3.7264   3.9622   4.1510   4.1603   4.2245   4.6642
     4.8554   5.4236   5.7152   5.8177   5.9047   6.0830   6.3420   6.7736
     6.9739   7.1893

          k = 0.0000-0.2579 0.1485 ( 36452 PWs)   bands (ev):

   -44.1348 -44.1348 -22.2636 -22.2635 -22.1690 -22.1690 -22.0635 -22.0634
    -7.7621  -7.5075  -7.0276  -6.8744  -6.2939  -5.6804  -4.8847  -4.7965
    -4.6533  -3.9593   0.4760   0.9257   0.9470   1.0704   1.1367   1.9539
     2.1275   2.3487   2.5543   2.8322   2.9459   3.1325   3.2861   3.3539
     3.6277   3.6569   3.7974   3.9144   4.1560   4.1759   4.1977   4.6679
     4.7750   4.9846   5.8391   6.0171   6.0232   6.0580   6.5899   6.6231
     6.8000   7.1554

          k = 0.0000-0.2579-0.2971 ( 36454 PWs)   bands (ev):

   -44.1348 -44.1348 -22.2635 -22.2635 -22.1690 -22.1690 -22.0634 -22.0634
    -7.6590  -7.6590  -6.9264  -6.9264  -6.0402  -6.0402  -4.8381  -4.8381
    -4.2612  -4.2612   0.6890   0.6890   1.0235   1.0235   1.3961   1.3961
     2.4314   2.4314   2.6868   2.6868   2.9076   2.9076   3.3348   3.3348
     3.7733   3.7733   3.9757   3.9757   4.1134   4.1134   4.3951   4.3951
     4.6929   4.6929   5.9580   5.9580   6.2777   6.2777   6.4176   6.4176
     7.0068   7.0068

          k = 1.5243 0.0000 0.0000 ( 36439 PWs)   bands (ev):

   -44.1335 -44.1335 -22.2569 -22.2569 -22.2023 -22.2023 -22.0594 -22.0594
    -7.3335  -6.9637  -6.8863  -6.6962  -6.1212  -5.2596  -5.0887  -4.7112
    -4.6261  -4.4427   0.4376   0.6047   0.6510   1.2431   1.4325   1.5950
     1.6646   1.6945   2.0671   2.0907   2.2409   2.2573   2.3971   3.2234
     3.3987   3.4211   3.4810   3.6955   3.7105   3.7113   3.7518   4.1097
     4.4219   5.1109   5.5203   5.8394   6.1888   6.7250   6.8462   6.8953
     7.2620   7.5550

          k = 1.5243 0.0000 0.1485 ( 36476 PWs)   bands (ev):

   -44.1335 -44.1335 -22.2569 -22.2569 -22.2023 -22.2023 -22.0594 -22.0594
    -7.3015  -7.0766  -6.8083  -6.7085  -6.0273  -5.4911  -4.9224  -4.6703
    -4.6573  -4.4634   0.4423   0.6830   0.7480   1.0094   1.3541   1.3962
     1.6405   1.7178   2.0203   2.0556   2.3235   2.5799   2.8300   3.1808
     3.3649   3.4489   3.4638   3.6149   3.6244   3.7160   3.7370   4.1453
     4.1726   4.5405   6.0284   6.1948   6.2413   6.6165   6.8383   6.9359
     7.0971   7.4980

          k = 1.5243 0.0000-0.2971 ( 36508 PWs)   bands (ev):

   -44.1335 -44.1335 -22.2569 -22.2569 -22.2023 -22.2023 -22.0594 -22.0594
    -7.2103  -7.2103  -6.7447  -6.7447  -5.7902  -5.7902  -4.7747  -4.7747
    -4.5423  -4.5423   0.5594   0.5594   1.0357   1.0357   1.0847   1.0847
     1.6665   1.6665   2.0172   2.0172   2.7957   2.7957   3.1196   3.1196
     3.3509   3.3509   3.4341   3.4341   3.6825   3.6825   3.8045   3.8045
     4.1905   4.1905   6.2761   6.2761   6.6646   6.6646   6.7905   6.7905
     7.1673   7.1673

          k =-0.2541-0.4514 0.0000 ( 36444 PWs)   bands (ev):

   -44.1344 -44.1344 -22.2616 -22.2616 -22.1788 -22.1788 -22.0623 -22.0622
    -7.6681  -7.2860  -7.0406  -6.8219  -6.3380  -5.3614  -5.0054  -4.8210
    -4.7283  -3.9957   0.5104   0.9064   1.1963   1.2992   1.3264   1.5800
     1.9292   1.9686   2.0709   2.3703   2.4573   3.2094   3.3320   3.3996
     3.5176   3.6595   3.7714   3.8125   3.8331   4.0977   4.1235   4.1830
     4.3507   4.5889   6.0070   6.0415   6.3764   6.5746   6.7741   6.8128
     6.8366   7.0006

          k =-0.2541-0.4514 0.1485 ( 36461 PWs)   bands (ev):

   -44.1344 -44.1344 -22.2616 -22.2616 -22.1788 -22.1788 -22.0623 -22.0622
    -7.6333  -7.3887  -6.9650  -6.8367  -6.2416  -5.6270  -4.8815  -4.7522
    -4.6582  -4.0851   0.5518   0.9679   0.9951   1.2936   1.3450   1.5357
     1.8372   2.1681   2.3737   2.3911   2.4473   2.9097   3.3073   3.3339
     3.4363   3.5604   3.7280   3.8449   3.8721   3.9685   4.1740   4.2026
     4.7386   4.8165   5.7994   5.9895   6.1720   6.3403   6.6661   6.7416
     7.1276   7.2623

          k =-0.2541-0.4514-0.2971 ( 36490 PWs)   bands (ev):

   -44.1344 -44.1344 -22.2616 -22.2616 -22.1788 -22.1788 -22.0622 -22.0622
    -7.5337  -7.5337  -6.8823  -6.8823  -5.9798  -5.9798  -4.8103  -4.8103
    -4.3301  -4.3301   0.7053   0.7053   1.2123   1.2123   1.3226   1.3226
     2.1982   2.1982   2.3821   2.3821   2.6623   2.6623   3.2333   3.2333
     3.3394   3.3394   3.8169   3.8169   3.9833   3.9833   4.1842   4.1842
     5.0895   5.0895   5.6659   5.6659   6.1066   6.1066   6.6856   6.6856
     7.3567   7.3567

          k = 0.0000-0.3869 0.0000 ( 36477 PWs)   bands (ev):

   -44.1348 -44.1348 -22.2636 -22.2635 -22.1690 -22.1690 -22.0635 -22.0634
    -7.7878  -7.3974  -7.1088  -6.8672  -6.4038  -5.4077  -4.9963  -4.8626
    -4.7707  -3.8462   0.4431   0.7775   1.0620   1.2284   1.5410   1.6813
     2.3232   2.3656   2.6586   2.7651   2.9560   3.0799   3.0978   3.1269
     3.5145   3.6233   3.6990   3.9496   3.9731   4.0188   4.2245   4.6641
     4.8308   5.3949   5.7787   5.8361   5.9626   6.1279   6.4025   6.6844
     6.9742   7.1621

          k = 0.0000-0.3869 0.1485 ( 36452 PWs)   bands (ev):

   -44.1348 -44.1348 -22.2636 -22.2635 -22.1690 -22.1690 -22.0635 -22.0634
    -7.7523  -7.5014  -7.0263  -6.8830  -6.3107  -5.6835  -4.9020  -4.7926
    -4.6473  -3.9595   0.4935   0.9619   1.0209   1.1630   1.2205   1.9738
     2.1658   2.3522   2.5582   2.8425   2.9461   3.0049   3.0789   3.3277
     3.5692   3.6822   3.7725   3.9122   4.0353   4.0623   4.1494   4.6675
     4.7605   4.9809   5.8834   6.0295   6.0581   6.0776   6.5458   6.6428
     6.8021   7.1247

          k = 0.0000-0.3869-0.2971 ( 36454 PWs)   bands (ev):

   -44.1348 -44.1348 -22.2636 -22.2636 -22.1690 -22.1690 -22.0634 -22.0634
    -7.6501  -7.6501  -6.9331  -6.9331  -6.0480  -6.0480  -4.8443  -4.8443
    -4.2587  -4.2587   0.7021   0.7021   1.1573   1.1573   1.4159   1.4159
     2.4354   2.4354   2.6910   2.6910   2.9121   2.9121   3.1282   3.1282
     3.8039   3.8039   3.9580   3.9580   3.9947   3.9947   4.3759   4.3759
     4.6893   4.6893   5.9484   5.9484   6.3060   6.3060   6.4238   6.4238
     6.9794   6.9794

          k =-2.0325 0.0000 0.0000 ( 36452 PWs)   bands (ev):

   -44.1348 -44.1348 -22.2636 -22.2635 -22.1690 -22.1690 -22.0635 -22.0634
    -7.7836  -7.3967  -7.1051  -6.8702  -6.4134  -5.4087  -5.0018  -4.8617
    -4.7685  -3.8468   0.4485   0.7829   1.1802   1.2135   1.5505   1.7235
     2.3245   2.3682   2.6576   2.7735   2.9552   2.9637   3.0145   3.1020
     3.6323   3.6346   3.6874   3.8375   3.9454   3.9597   4.2245   4.6642
     4.8207   5.3864   5.8052   5.8437   5.9934   6.1416   6.4214   6.6346
     6.9743   7.1564

          k =-2.0325 0.0000 0.1485 ( 36456 PWs)   bands (ev):

   -44.1348 -44.1348 -22.2636 -22.2635 -22.1690 -22.1690 -22.0635 -22.0634
    -7.7481  -7.4988  -7.0261  -6.8862  -6.3177  -5.6847  -4.9085  -4.7914
    -4.6450  -3.9595   0.4965   0.9719   1.0447   1.2195   1.2748   1.9829
     2.1835   2.3536   2.5598   2.8472   2.9040   2.9461   2.9614   3.3571
     3.5488   3.7434   3.7620   3.9078   3.9529   4.0063   4.1465   4.6674
     4.7546   4.9806   5.9066   6.0347   6.0723   6.0767   6.5203   6.6478
     6.8030   7.1145

          k =-2.0325 0.0000-0.2971 ( 36460 PWs)   bands (ev):

   -44.1348 -44.1348 -22.2636 -22.2636 -22.1690 -22.1690 -22.0634 -22.0634
    -7.6464  -7.6464  -6.9359  -6.9359  -6.0512  -6.0512  -4.8468  -4.8468
    -4.2576  -4.2576   0.7037   0.7037   1.2291   1.2291   1.4244   1.4244
     2.4370   2.4370   2.6720   2.6720   2.9141   2.9141   3.0457   3.0457
     3.8405   3.8405   3.9325   3.9325   3.9505   3.9505   4.3688   4.3688
     4.6880   4.6880   5.9415   5.9415   6.3153   6.3153   6.4265   6.4265
     6.9666   6.9666

     the Fermi energy is     5.5005 ev

!    total energy              =   -4240.95343033 Ry

     total all-electron energy =   -150287.647125 Ry
     estimated scf accuracy    <          9.3E-12 Ry
     smearing contrib. (-TS)   =       0.00001173 Ry
     internal energy E=F+TS    =   -4240.95344206 Ry

     The total energy is F=E-TS. E is the sum of the following terms:
     one-electron contribution =    -166.58603299 Ry
     hartree contribution      =     116.77287514 Ry
     xc contribution           =    -201.48403922 Ry
     ewald contribution        =    -222.13865388 Ry
     one-center paw contrib.   =   -3767.51759110 Ry

     convergence has been achieved in  17 iterations

     Forces acting on atoms (cartesian axes, Ry/au):

     atom    1 type  1   force =    -0.00000000   -0.00361791    0.00000000
     atom    2 type  1   force =     0.00000000    0.00361791    0.00000000
     atom    3 type  2   force =     0.00000000    0.00012522    0.00000000
     atom    4 type  2   force =     0.00000000   -0.00012522    0.00000000
     atom    5 type  2   force =     0.00000000    0.00079868    0.00039367
     atom    6 type  2   force =    -0.00000000   -0.00079868   -0.00039367
     atom    7 type  2   force =     0.00000000    0.00079868   -0.00039367
     atom    8 type  2   force =     0.00000000   -0.00079868    0.00039367
     atom    9 type  2   force =     0.00000000    0.00495361    0.00492189
     atom   10 type  2   force =     0.00000000   -0.00495361   -0.00492189
     atom   11 type  2   force =     0.00000000    0.00495361   -0.00492189
     atom   12 type  2   force =     0.00000000   -0.00495361    0.00492189

     Total force =     0.014981     Total SCF correction =     0.000005


     Computing stress (Cartesian axis) and pressure

          total   stress  (Ry/bohr**3)                   (kbar)     P=       -1.17
  -0.00000578   0.00000000   0.00000000           -0.85        0.00        0.00
   0.00000000  -0.00000662   0.00000000            0.00       -0.97        0.00
   0.00000000   0.00000000  -0.00001155            0.00        0.00       -1.70

 
     init_run     :     19.96s CPU     20.56s WALL (       1 calls)
     electrons    :    919.17s CPU    929.94s WALL (       1 calls)
     forces       :      7.02s CPU      7.28s WALL (       1 calls)
     stress       :     43.51s CPU     44.13s WALL (       1 calls)

     Called by init_run:
     wfcinit      :     15.21s CPU     15.38s WALL (       1 calls)
     potinit      :      1.38s CPU      1.44s WALL (       1 calls)
     hinit0       :      1.63s CPU      1.72s WALL (       1 calls)

     Called by electrons:
     c_bands      :    749.35s CPU    752.22s WALL (      18 calls)
     sum_band     :    142.53s CPU    146.84s WALL (      18 calls)
     v_of_rho     :      6.03s CPU      6.30s WALL (      18 calls)
     newd         :     15.63s CPU     19.20s WALL (      18 calls)
     PAW_pot      :      5.94s CPU      5.94s WALL (      18 calls)
     mix_rho      :      0.98s CPU      1.00s WALL (      18 calls)

     Called by c_bands:
     init_us_2    :     11.34s CPU     11.39s WALL (    2457 calls)
     cegterg      :    674.21s CPU    676.62s WALL (    1134 calls)

     Called by *egterg:
     cdiaghg      :     27.04s CPU     27.09s WALL (    7989 calls)
     h_psi        :    514.23s CPU    516.51s WALL (    8115 calls)
     s_psi        :     44.02s CPU     44.07s WALL (    8115 calls)
     g_psi        :      1.89s CPU      1.91s WALL (    6918 calls)

     Called by h_psi:
     h_psi:calbec :     37.92s CPU     37.97s WALL (    8115 calls)
     vloc_psi     :    429.39s CPU    431.48s WALL (    8115 calls)
     add_vuspsi   :     43.98s CPU     44.03s WALL (    8115 calls)

     General routines
     calbec       :     50.30s CPU     50.38s WALL (    9564 calls)
     fft          :      3.85s CPU      4.00s WALL (     258 calls)
     ffts         :      0.09s CPU      0.09s WALL (      36 calls)
     fftw         :    416.35s CPU    418.27s WALL (  414018 calls)
     interpolate  :      0.35s CPU      0.35s WALL (      18 calls)
 
     Parallel routines
 
     PWSCF        :  16m29.96s CPU  16m42.80s WALL

 
   This run was terminated on:  15:33:58  19Nov2021            

=------------------------------------------------------------------------------=
   JOB DONE.
=------------------------------------------------------------------------------=
