
     Program PWSCF v.6.8 starts on 19Nov2021 at 15:18:16 

     This program is part of the open-source Quantum ESPRESSO suite
     for quantum simulation of materials; please cite
         "P. Giannozzi et al., J. Phys.:Condens. Matter 21 395502 (2009);
         "P. Giannozzi et al., J. Phys.:Condens. Matter 29 465901 (2017);
         "P. Giannozzi et al., J. Chem. Phys. 152 154105 (2020);
          URL http://www.quantum-espresso.org", 
     in publications or presentations arising from this work. More details at
     http://www.quantum-espresso.org/quote

     Parallel version (MPI), running on    10 processors

     MPI processes distributed on     1 nodes
     R & G space division:  proc/nbgrp/npool/nimage =      10
     71644 MiB available memory on the printing compute node when the environment starts
 
     Waiting for input...
     Reading input from standard input

     Current dimensions of program PWSCF are:
     Max number of different atomic species (ntypx) = 10
     Max number of k-points (npk) =  40000
     Max angular momentum in pseudopotentials (lmaxx) =  4
     file Zr.pbe-spn-kjpaw_psl.1.0.0.UPF: wavefunction(s)  4S 4P renormalized
     file Te.pbe-n-kjpaw_psl.1.0.0.UPF: wavefunction(s)  5S 5P renormalized
     Message from routine setup:
     using ibrav=0 with symmetry is DISCOURAGED, use correct ibrav instead

     Subspace diagonalization in iterative solution of the eigenvalue problem:
     a serial algorithm will be used

 
     Parallelization info
     --------------------
     sticks:   dense  smooth     PW     G-vecs:    dense   smooth      PW
     Min         734     293     87               115340    29174    4753
     Max         735     295     88               115345    29176    4760
     Sum        7345    2937    873              1153415   291749   47557
 
     Using Slab Decomposition
 


     bravais-lattice index     =            0
     lattice parameter (alat)  =      15.5510  a.u.
     unit-cell volume          =    3018.5011 (a.u.)^3
     number of atoms/cell      =           12
     number of atomic types    =            2
     number of electrons       =        84.00
     number of Kohn-Sham states=           50
     kinetic-energy cutoff     =      80.0000  Ry
     charge density cutoff     =     800.0000  Ry
     scf convergence threshold =      1.0E-10
     mixing beta               =       0.7000
     number of iterations used =            8  plain     mixing
     Exchange-correlation= SLA  PW   PBX  PBC
                           (   1   4   3   4   0   0   0)

     celldm(1)=  15.551040  celldm(2)=   0.000000  celldm(3)=   0.000000
     celldm(4)=   0.000000  celldm(5)=   0.000000  celldm(6)=   0.000000

     crystal axes: (cart. coord. in units of alat)
               a(1) = (   0.246007  -0.969268   0.000000 )  
               a(2) = (   0.246007   0.969268   0.000000 )  
               a(3) = (   0.000000   0.000000   1.683031 )  

     reciprocal axes: (cart. coord. in units 2 pi/alat)
               b(1) = (  2.032465 -0.515853  0.000000 )  
               b(2) = (  2.032465  0.515853  0.000000 )  
               b(3) = (  0.000000  0.000000  0.594166 )  


     PseudoPot. # 1 for Zr read from file:
     pseudo/Zr.pbe-spn-kjpaw_psl.1.0.0.UPF
     MD5 check sum: 02112c41713a0468aff2bb39ef194e36
     Pseudo is Projector augmented-wave + core cor, Zval = 12.0
     Generated using &quot;atomic&quot; code by A. Dal Corso  v.6.2.2
     Shape of augmentation charge: PSQ
     Using radial grid of 1225 points,  6 beta functions with: 
                l(1) =   0
                l(2) =   0
                l(3) =   1
                l(4) =   1
                l(5) =   2
                l(6) =   2
     Q(r) pseudized with 0 coefficients 


     PseudoPot. # 2 for Te read from file:
     pseudo/Te.pbe-n-kjpaw_psl.1.0.0.UPF
     MD5 check sum: 66247bff2bd9dbf220fbb0bf5ab56e9d
     Pseudo is Projector augmented-wave + core cor, Zval =  6.0
     Generated using &quot;atomic&quot; code by A. Dal Corso  v.6.3
     Shape of augmentation charge: PSQ
     Using radial grid of 1245 points,  6 beta functions with: 
                l(1) =   0
                l(2) =   0
                l(3) =   1
                l(4) =   1
                l(5) =   2
                l(6) =   2
     Q(r) pseudized with 0 coefficients 


     atomic species   valence    mass     pseudopotential
        Zr            12.00    91.22000     Zr( 1.00)
        Te             6.00   127.60000     Te( 1.00)

      8 Sym. Ops., with inversion, found ( 4 have fractional translation)



   Cartesian axes

     site n.     atom                  positions (alat units)
         1           Zr  tau(   1) = (   0.0000000   0.6101290   0.4207578  )
         2           Zr  tau(   2) = (   0.2460067   0.3591391   1.2622733  )
         3           Te  tau(   3) = (   0.2460067   0.3343393   0.4207578  )
         4           Te  tau(   4) = (   0.0000000   0.6349289   1.2622733  )
         5           Te  tau(   5) = (   0.2460067   0.8077675   0.2506584  )
         6           Te  tau(   6) = (   0.0000000   0.1615006   1.4323726  )
         7           Te  tau(   7) = (   0.2460067   0.8077675   0.5908571  )
         8           Te  tau(   8) = (   0.0000000   0.1615006   1.0921739  )
         9           Te  tau(   9) = (   0.0000000   0.4069708   0.7233251  )
        10           Te  tau(  10) = (   0.2460067   0.5622974   0.9597060  )
        11           Te  tau(  11) = (   0.0000000   0.4069708   0.1181904  )
        12           Te  tau(  12) = (   0.2460067   0.5622974   1.5648406  )

     number of k points=    63  Methfessel-Paxton smearing, width (Ry)=  0.0030
                       cart. coord. in units 2pi/alat
        k(    1) = (   0.0000000   0.0000000   0.0000000), wk =   0.0078125
        k(    2) = (   0.0000000   0.0000000   0.1485415), wk =   0.0156250
        k(    3) = (   0.0000000   0.0000000  -0.2970830), wk =   0.0078125
        k(    4) = (   0.2540581   0.0644816   0.0000000), wk =   0.0312500
        k(    5) = (   0.2540581   0.0644816   0.1485415), wk =   0.0625000
        k(    6) = (   0.2540581   0.0644816  -0.2970830), wk =   0.0312500
        k(    7) = (   0.5081162   0.1289633   0.0000000), wk =   0.0312500
        k(    8) = (   0.5081162   0.1289633   0.1485415), wk =   0.0625000
        k(    9) = (   0.5081162   0.1289633  -0.2970830), wk =   0.0312500
        k(   10) = (   0.7621743   0.1934449   0.0000000), wk =   0.0312500
        k(   11) = (   0.7621743   0.1934449   0.1485415), wk =   0.0625000
        k(   12) = (   0.7621743   0.1934449  -0.2970830), wk =   0.0312500
        k(   13) = (  -1.0162324  -0.2579266   0.0000000), wk =   0.0156250
        k(   14) = (  -1.0162324  -0.2579266   0.1485415), wk =   0.0312500
        k(   15) = (  -1.0162324  -0.2579266  -0.2970830), wk =   0.0156250
        k(   16) = (   0.5081162   0.0000000   0.0000000), wk =   0.0156250
        k(   17) = (   0.5081162   0.0000000   0.1485415), wk =   0.0312500
        k(   18) = (   0.5081162   0.0000000  -0.2970830), wk =   0.0156250
        k(   19) = (   0.7621743   0.0644816   0.0000000), wk =   0.0312500
        k(   20) = (   0.7621743   0.0644816   0.1485415), wk =   0.0625000
        k(   21) = (   0.7621743   0.0644816  -0.2970830), wk =   0.0312500
        k(   22) = (   1.0162324   0.1289633   0.0000000), wk =   0.0312500
        k(   23) = (   1.0162324   0.1289633   0.1485415), wk =   0.0625000
        k(   24) = (   1.0162324   0.1289633  -0.2970830), wk =   0.0312500
        k(   25) = (  -0.7621743  -0.3224082   0.0000000), wk =   0.0312500
        k(   26) = (  -0.7621743  -0.3224082   0.1485415), wk =   0.0625000
        k(   27) = (  -0.7621743  -0.3224082  -0.2970830), wk =   0.0312500
        k(   28) = (  -0.5081162  -0.2579266   0.0000000), wk =   0.0312500
        k(   29) = (  -0.5081162  -0.2579266   0.1485415), wk =   0.0625000
        k(   30) = (  -0.5081162  -0.2579266  -0.2970830), wk =   0.0312500
        k(   31) = (  -0.2540581  -0.1934449   0.0000000), wk =   0.0312500
        k(   32) = (  -0.2540581  -0.1934449   0.1485415), wk =   0.0625000
        k(   33) = (  -0.2540581  -0.1934449  -0.2970830), wk =   0.0312500
        k(   34) = (   0.0000000  -0.1289633   0.0000000), wk =   0.0156250
        k(   35) = (   0.0000000  -0.1289633   0.1485415), wk =   0.0312500
        k(   36) = (   0.0000000  -0.1289633  -0.2970830), wk =   0.0156250
        k(   37) = (   1.0162324   0.0000000   0.0000000), wk =   0.0156250
        k(   38) = (   1.0162324   0.0000000   0.1485415), wk =   0.0312500
        k(   39) = (   1.0162324   0.0000000  -0.2970830), wk =   0.0156250
        k(   40) = (   1.2702905   0.0644816   0.0000000), wk =   0.0312500
        k(   41) = (   1.2702905   0.0644816   0.1485415), wk =   0.0625000
        k(   42) = (   1.2702905   0.0644816  -0.2970830), wk =   0.0312500
        k(   43) = (  -0.5081162  -0.3868899   0.0000000), wk =   0.0312500
        k(   44) = (  -0.5081162  -0.3868899   0.1485415), wk =   0.0625000
        k(   45) = (  -0.5081162  -0.3868899  -0.2970830), wk =   0.0312500
        k(   46) = (  -0.2540581  -0.3224082   0.0000000), wk =   0.0312500
        k(   47) = (  -0.2540581  -0.3224082   0.1485415), wk =   0.0625000
        k(   48) = (  -0.2540581  -0.3224082  -0.2970830), wk =   0.0312500
        k(   49) = (   0.0000000  -0.2579266   0.0000000), wk =   0.0156250
        k(   50) = (   0.0000000  -0.2579266   0.1485415), wk =   0.0312500
        k(   51) = (   0.0000000  -0.2579266  -0.2970830), wk =   0.0156250
        k(   52) = (   1.5243485   0.0000000   0.0000000), wk =   0.0156250
        k(   53) = (   1.5243485   0.0000000   0.1485415), wk =   0.0312500
        k(   54) = (   1.5243485   0.0000000  -0.2970830), wk =   0.0156250
        k(   55) = (  -0.2540581  -0.4513715   0.0000000), wk =   0.0312500
        k(   56) = (  -0.2540581  -0.4513715   0.1485415), wk =   0.0625000
        k(   57) = (  -0.2540581  -0.4513715  -0.2970830), wk =   0.0312500
        k(   58) = (   0.0000000  -0.3868899   0.0000000), wk =   0.0156250
        k(   59) = (   0.0000000  -0.3868899   0.1485415), wk =   0.0312500
        k(   60) = (   0.0000000  -0.3868899  -0.2970830), wk =   0.0156250
        k(   61) = (  -2.0324647   0.0000000   0.0000000), wk =   0.0078125
        k(   62) = (  -2.0324647   0.0000000   0.1485415), wk =   0.0156250
        k(   63) = (  -2.0324647   0.0000000  -0.2970830), wk =   0.0078125

     Dense  grid:  1153415 G-vectors     FFT dimensions: ( 144, 144, 240)

     Smooth grid:   291749 G-vectors     FFT dimensions: (  90,  90, 150)

     Estimated max dynamical RAM per process >     657.19 MB

     Estimated total dynamical RAM >       6.42 GB

     Initial potential from superposition of free atoms

     starting charge   83.99353, renormalised to   84.00000
     Starting wfcs are   66 randomized atomic wfcs
     Checking if some PAW data can be deallocated... 

     total cpu time spent up to now is       19.0 secs

     Self-consistent Calculation

     iteration #  1     ecut=    80.00 Ry     beta= 0.70
     Davidson diagonalization with overlap
     ethr =  1.00E-02,  avg # of iterations =  2.0

     Threshold (ethr) on eigenvalues was too large:
     Diagonalizing with lowered threshold

     Davidson diagonalization with overlap
     ethr =  3.85E-04,  avg # of iterations =  4.0

     total cpu time spent up to now is      100.6 secs

     total energy              =   -4240.72142316 Ry
     estimated scf accuracy    <       0.42868577 Ry

     iteration #  2     ecut=    80.00 Ry     beta= 0.70
     Davidson diagonalization with overlap
     ethr =  5.10E-04,  avg # of iterations =  7.5

     total cpu time spent up to now is      159.4 secs

     total energy              =   -4240.62492258 Ry
     estimated scf accuracy    <       2.17173660 Ry

     iteration #  3     ecut=    80.00 Ry     beta= 0.70
     Davidson diagonalization with overlap
     ethr =  5.10E-04,  avg # of iterations =  5.1

     total cpu time spent up to now is      209.9 secs

     total energy              =   -4240.91961644 Ry
     estimated scf accuracy    <       0.02078104 Ry

     iteration #  4     ecut=    80.00 Ry     beta= 0.70
     Davidson diagonalization with overlap
     c_bands:  1 eigenvalues not converged
     c_bands:  2 eigenvalues not converged
     c_bands:  1 eigenvalues not converged
     c_bands:  1 eigenvalues not converged
     c_bands:  1 eigenvalues not converged
     c_bands:  2 eigenvalues not converged
     c_bands:  1 eigenvalues not converged
     c_bands:  1 eigenvalues not converged
     c_bands:  1 eigenvalues not converged
     c_bands:  1 eigenvalues not converged
     c_bands:  1 eigenvalues not converged
     c_bands:  1 eigenvalues not converged
     ethr =  2.47E-05,  avg # of iterations = 16.4

     total cpu time spent up to now is      299.5 secs

     total energy              =   -4240.93782695 Ry
     estimated scf accuracy    <       0.11387827 Ry

     iteration #  5     ecut=    80.00 Ry     beta= 0.70
     Davidson diagonalization with overlap
     ethr =  2.47E-05,  avg # of iterations =  5.6

     total cpu time spent up to now is      345.6 secs

     total energy              =   -4240.94083320 Ry
     estimated scf accuracy    <       0.02525025 Ry

     iteration #  6     ecut=    80.00 Ry     beta= 0.70
     Davidson diagonalization with overlap
     ethr =  2.47E-05,  avg # of iterations =  2.7

     total cpu time spent up to now is      384.2 secs

     total energy              =   -4240.94187640 Ry
     estimated scf accuracy    <       0.00376403 Ry

     iteration #  7     ecut=    80.00 Ry     beta= 0.70
     Davidson diagonalization with overlap
     c_bands:  1 eigenvalues not converged
     c_bands:  1 eigenvalues not converged
     c_bands:  1 eigenvalues not converged
     ethr =  4.48E-06,  avg # of iterations = 11.8

     total cpu time spent up to now is      449.9 secs

     total energy              =   -4240.94376507 Ry
     estimated scf accuracy    <       0.00268478 Ry

     iteration #  8     ecut=    80.00 Ry     beta= 0.70
     Davidson diagonalization with overlap
     c_bands:  1 eigenvalues not converged
     c_bands:  1 eigenvalues not converged
     c_bands:  1 eigenvalues not converged
     ethr =  3.20E-06,  avg # of iterations =  3.1

     total cpu time spent up to now is      487.0 secs

     total energy              =   -4240.94378059 Ry
     estimated scf accuracy    <       0.00059258 Ry

     iteration #  9     ecut=    80.00 Ry     beta= 0.70
     Davidson diagonalization with overlap
     ethr =  7.05E-07,  avg # of iterations =  5.9

     total cpu time spent up to now is      532.0 secs

     total energy              =   -4240.94390346 Ry
     estimated scf accuracy    <       0.00000848 Ry

     iteration # 10     ecut=    80.00 Ry     beta= 0.70
     Davidson diagonalization with overlap
     c_bands:  1 eigenvalues not converged
     ethr =  1.01E-08,  avg # of iterations = 10.9

     total cpu time spent up to now is      604.0 secs

     total energy              =   -4240.94392562 Ry
     estimated scf accuracy    <       0.00001614 Ry

     iteration # 11     ecut=    80.00 Ry     beta= 0.70
     Davidson diagonalization with overlap
     ethr =  1.01E-08,  avg # of iterations =  3.9

     total cpu time spent up to now is      646.2 secs

     total energy              =   -4240.94392817 Ry
     estimated scf accuracy    <       0.00000004 Ry

     iteration # 12     ecut=    80.00 Ry     beta= 0.70
     Davidson diagonalization with overlap
     c_bands:  1 eigenvalues not converged
     ethr =  5.01E-11,  avg # of iterations = 12.2

     total cpu time spent up to now is      733.4 secs

     total energy              =   -4240.94392832 Ry
     estimated scf accuracy    <       0.00000078 Ry

     iteration # 13     ecut=    80.00 Ry     beta= 0.70
     Davidson diagonalization with overlap
     ethr =  5.01E-11,  avg # of iterations =  6.9

     total cpu time spent up to now is      789.8 secs

     total energy              =   -4240.94392840 Ry
     estimated scf accuracy    <       0.00000001 Ry

     iteration # 14     ecut=    80.00 Ry     beta= 0.70
     Davidson diagonalization with overlap
     ethr =  1.47E-11,  avg # of iterations =  4.6

     total cpu time spent up to now is      832.4 secs

     total energy              =   -4240.94392840 Ry
     estimated scf accuracy    <          1.7E-10 Ry

     iteration # 15     ecut=    80.00 Ry     beta= 0.70
     Davidson diagonalization with overlap
     ethr =  2.02E-13,  avg # of iterations = 10.3

     total cpu time spent up to now is      907.6 secs

     total energy              =   -4240.94392840 Ry
     estimated scf accuracy    <          1.2E-09 Ry

     iteration # 16     ecut=    80.00 Ry     beta= 0.70
     Davidson diagonalization with overlap
     ethr =  2.02E-13,  avg # of iterations =  5.2

     total cpu time spent up to now is      956.4 secs

     End of self-consistent calculation

          k = 0.0000 0.0000 0.0000 ( 36359 PWs)   bands (ev):

   -44.1493 -44.1493 -22.2889 -22.2889 -22.1868 -22.1868 -22.0718 -22.0717
    -7.6806  -7.1547  -7.0862  -6.7892  -6.5017  -5.3429  -5.0838  -4.8920
    -4.8375  -3.8594   0.4273   0.7030   0.7658   1.0722   1.4998   1.5674
     2.4118   2.4531   2.6488   2.9918   3.0120   3.0173   3.1290   3.4951
     3.5836   3.6495   3.8780   4.0498   4.1374   4.2973   4.3229   4.6314
     5.0707   5.5494   5.5884   5.6582   5.8494   6.0184   6.3519   6.8128
     6.9417   7.2884

          k = 0.0000 0.0000 0.1485 ( 36415 PWs)   bands (ev):

   -44.1493 -44.1493 -22.2889 -22.2889 -22.1868 -22.1868 -22.0718 -22.0717
    -7.6416  -7.3460  -6.9271  -6.7994  -6.3978  -5.6925  -4.9080  -4.8486
    -4.7006  -3.9766   0.4744   0.7408   0.9118   1.0482   1.0535   2.0018
     2.1055   2.4383   2.6019   2.9971   3.0143   3.1026   3.3547   3.3671
     3.6701   3.7377   3.8637   4.0429   4.0873   4.3171   4.3364   4.6447
     4.8908   5.0515   5.7339   5.9314   6.0160   6.0389   6.6034   6.6692
     6.7735   7.2605

          k = 0.0000 0.0000-0.2971 ( 36410 PWs)   bands (ev):

   -44.1493 -44.1493 -22.2889 -22.2889 -22.1868 -22.1868 -22.0717 -22.0717
    -7.5269  -7.5269  -6.8352  -6.8352  -6.0992  -6.0992  -4.8754  -4.8754
    -4.2873  -4.2873   0.6654   0.6654   0.8699   0.8699   1.4252   1.4252
     2.5108   2.5108   2.6880   2.6880   3.0065   3.0065   3.3925   3.3925
     3.8450   3.8450   3.9303   3.9303   4.3237   4.3237   4.4167   4.4167
     4.7110   4.7110   5.9615   5.9615   6.2306   6.2306   6.3815   6.3815
     7.1347   7.1347

          k = 0.2541 0.0645 0.0000 ( 36396 PWs)   bands (ev):

   -44.1490 -44.1490 -22.2870 -22.2869 -22.1967 -22.1967 -22.0706 -22.0705
    -7.5667  -7.0750  -6.9820  -6.7428  -6.4409  -5.3055  -5.0772  -4.8508
    -4.7955  -3.9991   0.5144   0.8368   0.9009   1.1907   1.3108   1.4528
     1.9204   2.0444   2.2124   2.5338   2.5855   3.0409   3.4487   3.6774
     3.6925   3.7169   3.7651   3.7953   4.0148   4.1816   4.2286   4.2594
     4.4672   4.6815   5.7127   5.9873   6.2727   6.5471   6.6220   6.8330
     7.0051   7.1457

          k = 0.2541 0.0645 0.1485 ( 36423 PWs)   bands (ev):

   -44.1490 -44.1490 -22.2870 -22.2869 -22.1967 -22.1967 -22.0705 -22.0705
    -7.5286  -7.2437  -6.8562  -6.7517  -6.3293  -5.6375  -4.8860  -4.8086
    -4.7038  -4.0930   0.5491   0.8771   0.9785   0.9884   1.1474   1.5787
     1.8526   2.3148   2.4312   2.5458   2.5484   2.9253   3.2722   3.3045
     3.6384   3.6869   3.8573   3.8988   4.0049   4.1011   4.2412   4.2915
     4.6901   5.0078   5.8104   5.8371   6.2099   6.2722   6.4690   6.6851
     7.2553   7.3011

          k = 0.2541 0.0645-0.2971 ( 36436 PWs)   bands (ev):

   -44.1490 -44.1490 -22.2870 -22.2870 -22.1967 -22.1967 -22.0705 -22.0705
    -7.4172  -7.4172  -6.7820  -6.7820  -6.0296  -6.0296  -4.8409  -4.8409
    -4.3510  -4.3510   0.6964   0.6964   0.9797   0.9797   1.2677   1.2677
     2.3000   2.3000   2.5546   2.5546   2.6836   2.6836   3.1111   3.1111
     3.5973   3.5973   3.8769   3.8769   4.0455   4.0455   4.2890   4.2890
     5.1557   5.1557   5.7482   5.7482   6.0933   6.0933   6.4593   6.4593
     7.4385   7.4386

          k = 0.5081 0.1290 0.0000 ( 36499 PWs)   bands (ev):

   -44.1481 -44.1480 -22.2822 -22.2822 -22.2206 -22.2206 -22.0676 -22.0675
    -7.2470  -6.8877  -6.6819  -6.6134  -6.2449  -5.2353  -5.1114  -4.7425
    -4.6917  -4.4203   0.5361   0.6756   0.7110   1.1956   1.2797   1.5068
     1.6693   1.8077   2.0170   2.1113   2.1686   2.3157   2.3434   3.2741
     3.3735   3.4359   3.4773   3.5803   3.7659   3.8659   3.9387   4.1557
     4.5821   5.2730   5.4148   5.9123   5.9527   6.5504   6.5630   6.8623
     7.3979   7.5668

          k = 0.5081 0.1290 0.1485 ( 36476 PWs)   bands (ev):

   -44.1480 -44.1480 -22.2822 -22.2822 -22.2206 -22.2206 -22.0676 -22.0675
    -7.2132  -6.9783  -6.6580  -6.6188  -6.1199  -5.5061  -4.9182  -4.7199
    -4.6879  -4.4529   0.5154   0.7248   0.8478   1.0729   1.2324   1.4269
     1.4797   1.6466   2.0326   2.0779   2.3234   2.5280   2.8160   3.3012
     3.3708   3.4141   3.4839   3.5821   3.6526   3.7630   3.8461   4.2158
     4.3802   4.5729   6.0442   6.1105   6.2287   6.5559   6.6053   6.7352
     7.2399   7.4887

          k = 0.5081 0.1290-0.2971 ( 36466 PWs)   bands (ev):

   -44.1480 -44.1480 -22.2822 -22.2822 -22.2206 -22.2206 -22.0675 -22.0675
    -7.1164  -7.1164  -6.6341  -6.6341  -5.8384  -5.8384  -4.7918  -4.7918
    -4.5545  -4.5545   0.6089   0.6089   1.0851   1.0851   1.2243   1.2243
     1.3744   1.3744   2.0581   2.0581   2.7609   2.7609   3.1212   3.1212
     3.3542   3.3542   3.5504   3.5504   3.7014   3.7014   3.8287   3.8287
     4.3018   4.3019   6.2795   6.2795   6.5382   6.5382   6.7831   6.7831
     7.0969   7.0969

          k = 0.7622 0.1934 0.0000 ( 36521 PWs)   bands (ev):

   -44.1471 -44.1471 -22.2774 -22.2774 -22.2446 -22.2446 -22.0646 -22.0645
    -6.8513  -6.7224  -6.3597  -6.2302  -5.9034  -5.3100  -5.2579  -5.0642
    -4.6205  -4.5853   0.0091   0.2297   0.6391   1.1199   1.1380   1.2397
     1.4761   1.5947   1.9204   1.9757   2.2707   2.4125   2.4735   2.7563
     2.7946   3.2587   3.3070   3.3730   3.6359   3.6738   3.7791   3.7898
     3.9508   4.5673   5.7787   6.1987   6.2740   6.7190   6.7490   6.8467
     7.2229   7.5753

          k = 0.7622 0.1934 0.1485 ( 36503 PWs)   bands (ev):

   -44.1471 -44.1471 -22.2774 -22.2774 -22.2446 -22.2446 -22.0646 -22.0645
    -6.8327  -6.7406  -6.3558  -6.2797  -5.8005  -5.4211  -5.1963  -5.0838
    -4.6101  -4.5862   0.0747   0.3442   0.5155   0.9529   1.1315   1.2080
     1.4916   1.6596   1.7569   2.0809   2.1358   2.6383   2.6879   2.7957
     2.8683   3.1366   3.2731   3.3834   3.4906   3.6283   3.6686   3.9042
     3.9906   4.6855   5.4452   6.2627   6.5667   6.6200   6.7787   6.9169
     6.9992   7.4894

          k = 0.7622 0.1934-0.2971 ( 36522 PWs)   bands (ev):

   -44.1471 -44.1471 -22.2774 -22.2774 -22.2446 -22.2446 -22.0646 -22.0646
    -6.7866  -6.7866  -6.3345  -6.3345  -5.6064  -5.6064  -5.1331  -5.1331
    -4.5937  -4.5937   0.2594   0.2594   0.6694   0.6694   1.0727   1.0727
     1.5736   1.5736   1.9915   1.9915   2.3687   2.3687   2.7974   2.7974
     2.9959   2.9959   3.3810   3.3810   3.5760   3.5760   3.8099   3.8099
     4.1695   4.1695   6.0071   6.0071   6.3827   6.3827   6.8655   6.8655
     7.3283   7.3283

          k =-1.0162-0.2579 0.0000 ( 36506 PWs)   bands (ev):

   -44.1468 -44.1467 -22.2752 -22.2752 -22.2546 -22.2546 -22.0633 -22.0633
    -6.6913  -6.6712  -5.8178  -5.8067  -5.7276  -5.7164  -5.4836  -5.4830
    -4.5631  -4.5428   0.0661   0.0917   0.4115   0.4312   1.0116   1.0203
     1.4671   1.6733   2.2317   2.3607   2.3622   2.3661   2.7889   2.8201
     2.8218   2.9113   3.2593   3.2625   3.2997   3.4779   3.5952   3.6365
     3.8075   3.9626   6.3969   6.4248   6.4767   6.5606   6.9510   7.0235
     7.0364   7.0387

          k =-1.0162-0.2579 0.1485 ( 36506 PWs)   bands (ev):

   -44.1468 -44.1467 -22.2752 -22.2752 -22.2546 -22.2546 -22.0633 -22.0633
    -6.6877  -6.6735  -5.8300  -5.8212  -5.7194  -5.7131  -5.4722  -5.4720
    -4.5652  -4.5509  -0.0246  -0.0162   0.6326   0.6382   1.0246   1.0493
     1.4639   1.5837   1.9323   2.0093   2.3719   2.3841   2.7425   2.7431
     2.9477   2.9855   3.1595   3.2133   3.5512   3.5575   3.7073   3.7373
     4.0842   4.1127   5.8817   5.8916   6.4054   6.4788   6.9451   6.9813
     7.2458   7.2738

          k =-1.0162-0.2579-0.2971 ( 36528 PWs)   bands (ev):

   -44.1468 -44.1468 -22.2752 -22.2752 -22.2546 -22.2546 -22.0633 -22.0633
    -6.6799  -6.6799  -5.8372  -5.8372  -5.7121  -5.7121  -5.4611  -5.4611
    -4.5632  -4.5632  -0.0813  -0.0813   0.9131   0.9131   0.9933   0.9933
     1.5687   1.5687   1.5891   1.5891   2.3728   2.3728   2.7814   2.7814
     2.9317   2.9317   3.1865   3.1865   3.6042   3.6042   3.7799   3.7799
     4.5431   4.5431   5.3323   5.3323   6.3688   6.3688   6.9846   6.9846
     7.3203   7.3203

          k = 0.5081 0.0000 0.0000 ( 36503 PWs)   bands (ev):

   -44.1481 -44.1480 -22.2822 -22.2822 -22.2206 -22.2206 -22.0676 -22.0675
    -7.2527  -6.8896  -6.6830  -6.6067  -6.2405  -5.2360  -5.1080  -4.7381
    -4.6972  -4.4199   0.5358   0.6822   0.7068   1.1645   1.2746   1.4858
     1.6729   1.8138   2.0321   2.0983   2.1292   2.3097   2.3503   3.2572
     3.3889   3.4153   3.5333   3.5990   3.7722   3.8518   3.9818   4.1928
     4.5842   5.2729   5.4207   5.9311   5.9486   6.5106   6.5120   6.8977
     7.4232   7.5756

          k = 0.5081 0.0000 0.1485 ( 36453 PWs)   bands (ev):

   -44.1480 -44.1480 -22.2822 -22.2822 -22.2206 -22.2206 -22.0676 -22.0675
    -7.2188  -6.9825  -6.6543  -6.6122  -6.1181  -5.5067  -4.9124  -4.7218
    -4.6883  -4.4537   0.5143   0.7197   0.8528   1.0746   1.2059   1.4398
     1.4419   1.6403   2.0278   2.0830   2.3285   2.4983   2.8089   3.2882
     3.3688   3.4445   3.4927   3.5962   3.6477   3.8201   3.8419   4.2513
     4.3952   4.5724   6.0429   6.1271   6.2359   6.5052   6.5697   6.7661
     7.2647   7.4939

          k = 0.5081 0.0000-0.2971 ( 36452 PWs)   bands (ev):

   -44.1480 -44.1480 -22.2822 -22.2822 -22.2206 -22.2206 -22.0675 -22.0675
    -7.1216  -7.1216  -6.6278  -6.6278  -5.8386  -5.8386  -4.7877  -4.7877
    -4.5572  -4.5572   0.6048   0.6048   1.0852   1.0852   1.2471   1.2471
     1.3270   1.3270   2.0585   2.0585   2.7519   2.7519   3.1009   3.1009
     3.3488   3.3488   3.5961   3.5961   3.7153   3.7153   3.8317   3.8317
     4.3254   4.3254   6.2951   6.2951   6.5032   6.5032   6.7985   6.7985
     7.0986   7.0986

          k = 0.7622 0.0645 0.0000 ( 36505 PWs)   bands (ev):

   -44.1471 -44.1471 -22.2774 -22.2774 -22.2446 -22.2446 -22.0646 -22.0645
    -6.8606  -6.7205  -6.3505  -6.2325  -5.9028  -5.3056  -5.2587  -5.0638
    -4.6133  -4.5936   0.0036   0.2411   0.6623   1.1259   1.1528   1.2539
     1.4345   1.5523   1.8969   1.9900   2.2394   2.3787   2.4562   2.7289
     2.7798   3.3144   3.3359   3.3833   3.6096   3.6551   3.8133   3.8276
     3.9687   4.6088   5.7769   6.2128   6.2397   6.6878   6.8036   6.8065
     7.2446   7.5807

          k = 0.7622 0.0645 0.1485 ( 36509 PWs)   bands (ev):

   -44.1471 -44.1471 -22.2774 -22.2774 -22.2446 -22.2446 -22.0646 -22.0645
    -6.8411  -6.7413  -6.3469  -6.2780  -5.8015  -5.4211  -5.1936  -5.0829
    -4.6052  -4.5921   0.0733   0.3503   0.5250   0.9727   1.1308   1.2227
     1.4548   1.6579   1.7829   2.0081   2.0646   2.6540   2.6760   2.7680
     2.8552   3.1377   3.3380   3.4007   3.4571   3.6447   3.6912   3.9219
     4.0348   4.6844   5.4719   6.2454   6.5723   6.6118   6.7953   6.9137
     6.9781   7.5081

          k = 0.7622 0.0645-0.2971 ( 36472 PWs)   bands (ev):

   -44.1471 -44.1471 -22.2774 -22.2774 -22.2446 -22.2446 -22.0646 -22.0646
    -6.7920  -6.7920  -6.3279  -6.3279  -5.6079  -5.6079  -5.1309  -5.1309
    -4.5941  -4.5941   0.2637   0.2637   0.6649   0.6649   1.0978   1.0978
     1.5674   1.5674   1.9426   1.9426   2.3341   2.3341   2.7931   2.7931
     2.9896   2.9896   3.4465   3.4465   3.5726   3.5726   3.8005   3.8005
     4.1931   4.1931   6.0314   6.0314   6.3840   6.3840   6.8313   6.8313
     7.3548   7.3548

          k = 1.0162 0.1290 0.0000 ( 36514 PWs)   bands (ev):

   -44.1468 -44.1467 -22.2752 -22.2752 -22.2546 -22.2546 -22.0633 -22.0633
    -6.6913  -6.6712  -5.8174  -5.8071  -5.7276  -5.7164  -5.4838  -5.4828
    -4.5631  -4.5428   0.0602   0.0978   0.4060   0.4369   1.0063   1.0271
     1.4723   1.6647   2.2344   2.3511   2.3541   2.3698   2.7893   2.8152
     2.8512   2.9093   3.2390   3.2727   3.3077   3.4717   3.6136   3.6221
     3.7906   3.9743   6.3915   6.4312   6.4719   6.5662   6.9632   7.0259
     7.0320   7.0385

          k = 1.0162 0.1290 0.1485 ( 36524 PWs)   bands (ev):

   -44.1468 -44.1467 -22.2752 -22.2752 -22.2546 -22.2546 -22.0633 -22.0633
    -6.6877  -6.6735  -5.8298  -5.8214  -5.7194  -5.7132  -5.4727  -5.4715
    -4.5652  -4.5509  -0.0267  -0.0145   0.6323   0.6391   1.0285   1.0462
     1.4684   1.5803   1.9406   1.9967   2.3658   2.3800   2.6956   2.7982
     2.9627   3.0013   3.1363   3.2128   3.5328   3.5971   3.6980   3.7170
     4.0708   4.1315   5.8713   5.9045   6.4026   6.4813   6.9519   6.9800
     7.2499   7.2699

          k = 1.0162 0.1290-0.2971 ( 36516 PWs)   bands (ev):

   -44.1468 -44.1468 -22.2752 -22.2752 -22.2546 -22.2546 -22.0633 -22.0633
    -6.6799  -6.6799  -5.8372  -5.8372  -5.7121  -5.7121  -5.4611  -5.4611
    -4.5632  -4.5632  -0.0814  -0.0814   0.9121   0.9121   0.9954   0.9954
     1.5659   1.5659   1.5928   1.5928   2.3627   2.3627   2.7652   2.7652
     2.9830   2.9830   3.1596   3.1596   3.6102   3.6102   3.7729   3.7729
     4.5434   4.5434   5.3343   5.3343   6.3684   6.3684   6.9868   6.9868
     7.3204   7.3204

          k =-0.7622-0.3224 0.0000 ( 36511 PWs)   bands (ev):

   -44.1471 -44.1471 -22.2774 -22.2774 -22.2446 -22.2446 -22.0646 -22.0645
    -6.8366  -6.7264  -6.3727  -6.2269  -5.9044  -5.3164  -5.2568  -5.0648
    -4.6264  -4.5777   0.0171   0.2140   0.6081   1.0923   1.1550   1.2209
     1.4994   1.6612   1.9575   1.9692   2.3337   2.4360   2.4988   2.7915
     2.8137   3.1800   3.2817   3.3931   3.5915   3.6563   3.7661   3.7969
     3.9139   4.4995   5.7814   6.1911   6.3187   6.6673   6.7669   6.9137
     7.1857   7.5726

          k =-0.7622-0.3224 0.1485 ( 36492 PWs)   bands (ev):

   -44.1471 -44.1471 -22.2774 -22.2774 -22.2446 -22.2446 -22.0646 -22.0645
    -6.8196  -6.7406  -6.3684  -6.2822  -5.7992  -5.4212  -5.2001  -5.0851
    -4.6141  -4.5808   0.0760   0.3371   0.5010   0.9288   1.1395   1.1877
     1.5399   1.6554   1.7346   2.1862   2.2347   2.6237   2.6974   2.8253
     2.8827   3.1571   3.1869   3.3681   3.4789   3.6235   3.6542   3.8761
     3.9169   4.6858   5.4095   6.2909   6.5441   6.6272   6.7617   6.9472
     7.0241   7.4565

          k =-0.7622-0.3224-0.2971 ( 36508 PWs)   bands (ev):

   -44.1471 -44.1471 -22.2774 -22.2774 -22.2446 -22.2446 -22.0646 -22.0646
    -6.7788  -6.7788  -6.3442  -6.3442  -5.6043  -5.6043  -5.1362  -5.1362
    -4.5931  -4.5931   0.2532   0.2532   0.6759   0.6759   1.0437   1.0437
     1.5801   1.5801   2.0474   2.0474   2.4360   2.4360   2.8063   2.8063
     3.0039   3.0039   3.2895   3.2895   3.5789   3.5789   3.8100   3.8100
     4.1392   4.1392   5.9749   5.9749   6.3793   6.3793   6.9232   6.9232
     7.2833   7.2833

          k =-0.5081-0.2579 0.0000 ( 36480 PWs)   bands (ev):

   -44.1481 -44.1480 -22.2822 -22.2822 -22.2206 -22.2206 -22.0676 -22.0675
    -7.2326  -6.8837  -6.6793  -6.6292  -6.2557  -5.2334  -5.1196  -4.7494
    -4.6821  -4.4213   0.5394   0.6605   0.7136   1.2865   1.2910   1.5579
     1.6657   1.7980   1.9896   2.1460   2.2390   2.3265   2.3275   3.3169
     3.3558   3.3702   3.4646   3.4987   3.7368   3.8752   3.8752   4.0814
     4.5735   5.2702   5.4032   5.8253   6.0076   6.6496   6.6832   6.7778
     7.3291   7.5488

          k =-0.5081-0.2579 0.1485 ( 36485 PWs)   bands (ev):

   -44.1481 -44.1480 -22.2822 -22.2822 -22.2206 -22.2206 -22.0676 -22.0675
    -7.1989  -6.9681  -6.6679  -6.6346  -6.1242  -5.5046  -4.9315  -4.7168
    -4.6860  -4.4509   0.5189   0.7334   0.8356   1.0693   1.3058   1.4246
     1.5462   1.6617   2.0413   2.0716   2.3158   2.5887   2.8326   3.3147
     3.3361   3.3789   3.4760   3.5140   3.6408   3.7157   3.8288   4.1412
     4.3363   4.5732   6.0253   6.0883   6.2169   6.6536   6.6775   6.7033
     7.1760   7.4792

          k =-0.5081-0.2579-0.2971 ( 36478 PWs)   bands (ev):

   -44.1480 -44.1480 -22.2822 -22.2822 -22.2206 -22.2206 -22.0675 -22.0675
    -7.1030  -7.1030  -6.6500  -6.6500  -5.8377  -5.8377  -4.8015  -4.8015
    -4.5482  -4.5482   0.6182   0.6182   1.0842   1.0842   1.1970   1.1970
     1.4695   1.4695   2.0551   2.0551   2.7856   2.7856   3.1704   3.1704
     3.3616   3.3616   3.4242   3.4242   3.6912   3.6912   3.8166   3.8166
     4.2438   4.2438   6.2412   6.2412   6.6126   6.6126   6.7530   6.7530
     7.0982   7.0982

          k =-0.2541-0.1934 0.0000 ( 36410 PWs)   bands (ev):

   -44.1490 -44.1490 -22.2870 -22.2869 -22.1967 -22.1967 -22.0706 -22.0705
    -7.5565  -7.0663  -6.9802  -6.7555  -6.4563  -5.3048  -5.0844  -4.8584
    -4.7856  -4.0001   0.5437   0.9097   0.9099   1.2170   1.3431   1.4527
     1.9433   2.0642   2.2160   2.4993   2.5687   3.1084   3.3775   3.5793
     3.6202   3.6982   3.7698   3.8267   3.9217   4.1694   4.2069   4.2201
     4.4035   4.6584   5.7635   6.0059   6.3219   6.5965   6.6081   6.8482
     6.9975   7.0684

          k =-0.2541-0.1934 0.1485 ( 36427 PWs)   bands (ev):

   -44.1490 -44.1490 -22.2870 -22.2869 -22.1967 -22.1967 -22.0705 -22.0705
    -7.5185  -7.2343  -6.8612  -6.7642  -6.3383  -5.6371  -4.9041  -4.8033
    -4.6971  -4.0929   0.5738   0.9278   1.0004   1.0308   1.1748   1.5953
     1.8553   2.3167   2.4515   2.5120   2.5504   2.9135   3.2788   3.3432
     3.5533   3.6468   3.7330   3.8900   3.9714   4.0828   4.1987   4.2373
     4.6777   4.9918   5.7916   5.8575   6.1861   6.3286   6.5457   6.6949
     7.2118   7.2932

          k =-0.2541-0.1934-0.2971 ( 36422 PWs)   bands (ev):

   -44.1490 -44.1490 -22.2870 -22.2870 -22.1967 -22.1967 -22.0705 -22.0705
    -7.4072  -7.4072  -6.7933  -6.7933  -6.0315  -6.0315  -4.8468  -4.8468
    -4.3480  -4.3480   0.7145   0.7145   1.0450   1.0450   1.2768   1.2768
     2.2995   2.2995   2.5343   2.5343   2.6883   2.6883   3.1397   3.1397
     3.5333   3.5333   3.8060   3.8060   4.0346   4.0346   4.2329   4.2329
     5.1558   5.1558   5.7078   5.7078   6.0873   6.0873   6.5471   6.5471
     7.4125   7.4126

          k = 0.0000-0.1290 0.0000 ( 36417 PWs)   bands (ev):

   -44.1493 -44.1493 -22.2889 -22.2889 -22.1868 -22.1868 -22.0718 -22.0717
    -7.6753  -7.1491  -7.0852  -6.7962  -6.5112  -5.3428  -5.0877  -4.8977
    -4.8308  -3.8601   0.4507   0.7449   0.7712   1.0783   1.5248   1.5780
     2.4149   2.4542   2.6559   2.9902   3.0137   3.0191   3.1669   3.4594
     3.5205   3.6387   3.7920   4.0168   4.1374   4.2453   4.2725   4.6321
     5.0621   5.5058   5.6144   5.6655   5.8642   6.0628   6.4037   6.7877
     6.9423   7.2686

          k = 0.0000-0.1290 0.1485 ( 36419 PWs)   bands (ev):

   -44.1493 -44.1493 -22.2889 -22.2889 -22.1868 -22.1868 -22.0718 -22.0717
    -7.6362  -7.3409  -6.9288  -6.8062  -6.4039  -5.6926  -4.9188  -4.8448
    -4.6971  -3.9767   0.4950   0.7828   0.9263   1.0421   1.0788   2.0098
     2.1210   2.4417   2.6079   2.9952   3.0110   3.1225   3.3130   3.3553
     3.6654   3.7285   3.7792   3.9859   4.0855   4.2699   4.2892   4.6454
     4.8870   5.0391   5.7428   5.9350   6.0327   6.0599   6.5917   6.7045
     6.7744   7.2468

          k = 0.0000-0.1290-0.2971 ( 36464 PWs)   bands (ev):

   -44.1493 -44.1493 -22.2889 -22.2889 -22.1868 -22.1868 -22.0717 -22.0717
    -7.5216  -7.5216  -6.8410  -6.8410  -6.1009  -6.1009  -4.8785  -4.8785
    -4.2859  -4.2859   0.6905   0.6905   0.8895   0.8895   1.4341   1.4341
     2.5152   2.5152   2.6986   2.6986   3.0040   3.0040   3.3618   3.3618
     3.8080   3.8080   3.9244   3.9244   4.2377   4.2377   4.4295   4.4295
     4.7106   4.7106   5.9541   5.9541   6.2541   6.2541   6.3832   6.3832
     7.1370   7.1371

          k = 1.0162 0.0000 0.0000 ( 36499 PWs)   bands (ev):

   -44.1467 -44.1467 -22.2752 -22.2752 -22.2546 -22.2546 -22.0633 -22.0633
    -6.6913  -6.6712  -5.8170  -5.8076  -5.7276  -5.7164  -5.4840  -5.4827
    -4.5631  -4.5428   0.0558   0.1023   0.4020   0.4410   1.0035   1.0315
     1.4782   1.6553   2.2372   2.3373   2.3514   2.3735   2.7904   2.8096
     2.8852   2.9013   3.2309   3.2887   3.2986   3.4612   3.6103   3.6393
     3.7682   3.9850   6.3874   6.4362   6.4675   6.5714   6.9793   7.0215
     7.0282   7.0407

          k = 1.0162 0.0000 0.1485 ( 36485 PWs)   bands (ev):

   -44.1467 -44.1467 -22.2752 -22.2752 -22.2546 -22.2546 -22.0633 -22.0633
    -6.6877  -6.6735  -5.8295  -5.8217  -5.7194  -5.7132  -5.4729  -5.4713
    -4.5652  -4.5509  -0.0283  -0.0132   0.6321   0.6400   1.0365   1.0391
     1.4733   1.5764   1.9565   1.9764   2.3618   2.3743   2.6804   2.8169
     2.9775   3.0455   3.0893   3.2124   3.5289   3.6353   3.6801   3.6925
     4.0634   4.1442   5.8662   5.9121   6.4000   6.4837   6.9604   6.9771
     7.2581   7.2620

          k = 1.0162 0.0000-0.2971 ( 36514 PWs)   bands (ev):

   -44.1468 -44.1468 -22.2752 -22.2752 -22.2546 -22.2546 -22.0633 -22.0633
    -6.6799  -6.6799  -5.8372  -5.8372  -5.7121  -5.7121  -5.4611  -5.4611
    -4.5632  -4.5632  -0.0816  -0.0816   0.9112   0.9112   0.9974   0.9974
     1.5638   1.5638   1.5958   1.5958   2.3530   2.3530   2.7539   2.7539
     3.0559   3.0559   3.1060   3.1060   3.6165   3.6165   3.7655   3.7655
     4.5438   4.5438   5.3363   5.3363   6.3680   6.3680   6.9890   6.9890
     7.3204   7.3204

          k = 1.2703 0.0645 0.0000 ( 36468 PWs)   bands (ev):

   -44.1471 -44.1471 -22.2774 -22.2774 -22.2446 -22.2446 -22.0646 -22.0645
    -6.8246  -6.7307  -6.3821  -6.2246  -5.9052  -5.3208  -5.2561  -5.0653
    -4.6295  -4.5735   0.0229   0.2033   0.5870   1.0809   1.1669   1.2073
     1.5036   1.7083   1.9457   2.0154   2.3944   2.4315   2.5176   2.8130
     2.8260   3.1114   3.2947   3.4560   3.5401   3.5544   3.7569   3.8634
     3.8790   4.4416   5.7834   6.1908   6.3516   6.6092   6.8038   6.9697
     7.1503   7.5787

          k = 1.2703 0.0645 0.1485 ( 36490 PWs)   bands (ev):

   -44.1471 -44.1471 -22.2774 -22.2774 -22.2446 -22.2446 -22.0646 -22.0645
    -6.8091  -6.7416  -6.3775  -6.2841  -5.7982  -5.4213  -5.2028  -5.0860
    -4.6161  -4.5779   0.0765   0.3333   0.4899   0.9143   1.1514   1.1704
     1.5803   1.6410   1.7249   2.2638   2.3093   2.6140   2.7018   2.8400
     2.8931   3.1159   3.1974   3.3718   3.4267   3.5763   3.7309   3.8296
     3.8565   4.6850   5.3857   6.3154   6.5137   6.6314   6.7582   6.9829
     7.0390   7.4282

          k = 1.2703 0.0645-0.2971 ( 36480 PWs)   bands (ev):

   -44.1471 -44.1471 -22.2774 -22.2774 -22.2446 -22.2446 -22.0646 -22.0646
    -6.7730  -6.7730  -6.3513  -6.3513  -5.6028  -5.6028  -5.1385  -5.1385
    -4.5927  -4.5927   0.2486   0.2486   0.6804   0.6804   1.0267   1.0267
     1.5844   1.5844   2.0765   2.0765   2.4986   2.4986   2.8240   2.8240
     3.0039   3.0039   3.2156   3.2156   3.5832   3.5832   3.8007   3.8007
     4.1210   4.1210   5.9536   5.9536   6.3763   6.3763   6.9747   6.9747
     7.2420   7.2420

          k =-0.5081-0.3869 0.0000 ( 36463 PWs)   bands (ev):

   -44.1480 -44.1480 -22.2822 -22.2822 -22.2206 -22.2206 -22.0676 -22.0675
    -7.2170  -6.8810  -6.6767  -6.6443  -6.2671  -5.2315  -5.1279  -4.7534
    -4.6752  -4.4224   0.5466   0.6462   0.7064   1.3013   1.4215   1.5973
     1.6552   1.7922   1.9713   2.1876   2.2696   2.3290   2.3305   3.2338
     3.3519   3.3865   3.3970   3.5138   3.6995   3.7864   3.8516   4.0718
     4.5620   5.2603   5.3940   5.7397   6.0684   6.6925   6.7627   6.8005
     7.2424   7.5477

          k =-0.5081-0.3869 0.1485 ( 36477 PWs)   bands (ev):

   -44.1481 -44.1480 -22.2822 -22.2822 -22.2206 -22.2206 -22.0676 -22.0675
    -7.1835  -6.9577  -6.6788  -6.6507  -6.1285  -5.5030  -4.9440  -4.7153
    -4.6833  -4.4489   0.5235   0.7376   0.8226   1.0661   1.3981   1.4325
     1.5936   1.6890   2.0477   2.0761   2.3053   2.6342   2.8517   3.2008
     3.3485   3.3792   3.4184   3.5116   3.6480   3.6964   3.7725   4.1077
     4.2729   4.5730   5.9704   6.0991   6.2114   6.5897   6.7756   6.8225
     7.0969   7.4819

          k =-0.5081-0.3869-0.2971 ( 36492 PWs)   bands (ev):

   -44.1480 -44.1480 -22.2822 -22.2822 -22.2206 -22.2206 -22.0675 -22.0675
    -7.0886  -7.0886  -6.6669  -6.6669  -5.8369  -5.8369  -4.8108  -4.8108
    -4.5423  -4.5423   0.6269   0.6269   1.0823   1.0823   1.1800   1.1800
     1.5707   1.5707   2.0459   2.0459   2.8148   2.8148   3.1922   3.1922
     3.3035   3.3035   3.3886   3.3886   3.6781   3.6781   3.8021   3.8021
     4.1853   4.1853   6.2039   6.2039   6.6436   6.6436   6.7580   6.7580
     7.1114   7.1114

          k =-0.2541-0.3224 0.0000 ( 36485 PWs)   bands (ev):

   -44.1490 -44.1490 -22.2870 -22.2869 -22.1967 -22.1967 -22.0706 -22.0705
    -7.5413  -7.0543  -6.9776  -6.7723  -6.4796  -5.3039  -5.0952  -4.8638
    -4.7765  -4.0016   0.5700   0.9236   1.0356   1.2662   1.4153   1.4497
     1.9789   2.0963   2.2175   2.4197   2.5182   3.2247   3.2608   3.3957
     3.5680   3.6572   3.7360   3.8552   3.8999   4.0866   4.1697   4.1770
     4.3950   4.6034   5.8440   6.0230   6.3661   6.5586   6.6940   6.8702
     6.9349   7.0111

          k =-0.2541-0.3224 0.1485 ( 36445 PWs)   bands (ev):

   -44.1490 -44.1490 -22.2870 -22.2870 -22.1967 -22.1967 -22.0705 -22.0705
    -7.5034  -7.2204  -6.8699  -6.7814  -6.3510  -5.6365  -4.9254  -4.7994
    -4.6885  -4.0926   0.5940   0.9632   1.0364   1.1412   1.2518   1.6200
     1.8647   2.3139   2.4328   2.4681   2.5434   2.8941   3.3116   3.3526
     3.3833   3.5254   3.7295   3.8829   3.9143   4.0686   4.1150   4.1735
     4.6887   4.9586   5.7745   5.8848   6.1777   6.3277   6.6470   6.7242
     7.1600   7.2811

          k =-0.2541-0.3224-0.2971 ( 36442 PWs)   bands (ev):

   -44.1490 -44.1490 -22.2870 -22.2870 -22.1967 -22.1967 -22.0705 -22.0705
    -7.3924  -7.3924  -6.8101  -6.8101  -6.0340  -6.0340  -4.8551  -4.8551
    -4.3440  -4.3440   0.7263   0.7263   1.1742   1.1742   1.2899   1.2899
     2.2962   2.2962   2.4848   2.4848   2.6905   2.6905   3.1908   3.1908
     3.3661   3.3661   3.7930   3.7930   4.0167   4.0167   4.1570   4.1570
     5.1587   5.1587   5.6642   5.6642   6.0617   6.0617   6.6543   6.6543
     7.3792   7.3793

          k = 0.0000-0.2579 0.0000 ( 36445 PWs)   bands (ev):

   -44.1493 -44.1493 -22.2889 -22.2889 -22.1868 -22.1868 -22.0718 -22.0717
    -7.6619  -7.1354  -7.0829  -6.8124  -6.5353  -5.3426  -5.0976  -4.9054
    -4.8200  -3.8617   0.4945   0.7846   0.8596   1.1216   1.5805   1.6028
     2.4225   2.4563   2.6738   2.9863   3.0048   3.0493   3.2677   3.2825
     3.3052   3.6123   3.7041   3.9800   4.1065   4.1373   4.1463   4.6341
     5.0418   5.4430   5.6817   5.6831   5.9002   6.1284   6.5001   6.7107
     6.9435   7.2308

          k = 0.0000-0.2579 0.1485 ( 36452 PWs)   bands (ev):

   -44.1493 -44.1493 -22.2889 -22.2889 -22.1868 -22.1868 -22.0718 -22.0717
    -7.6229  -7.3283  -6.9339  -6.8222  -6.4189  -5.6927  -4.9404  -4.8395
    -4.6891  -3.9767   0.5298   0.8883   0.9710   1.0873   1.1079   2.0313
     2.1563   2.4500   2.6228   2.9906   3.0028   3.1252   3.2127   3.2450
     3.6336   3.6671   3.7061   3.9240   4.0810   4.1469   4.1758   4.6473
     4.8776   5.0217   5.7714   5.9441   6.0641   6.0869   6.5560   6.7678
     6.7765   7.2123

          k = 0.0000-0.2579-0.2971 ( 36454 PWs)   bands (ev):

   -44.1493 -44.1493 -22.2889 -22.2889 -22.1868 -22.1868 -22.0717 -22.0717
    -7.5084  -7.5084  -6.8553  -6.8553  -6.1048  -6.1048  -4.8858  -4.8858
    -4.2826  -4.2826   0.7232   0.7232   0.9784   0.9784   1.4566   1.4566
     2.5259   2.5259   2.7179   2.7179   2.9975   2.9975   3.2211   3.2211
     3.7713   3.7713   3.9102   3.9102   4.0995   4.0995   4.4211   4.4211
     4.7100   4.7100   5.9330   5.9330   6.2952   6.2952   6.3876   6.3876
     7.1254   7.1254

          k = 1.5243 0.0000 0.0000 ( 36439 PWs)   bands (ev):

   -44.1480 -44.1480 -22.2822 -22.2822 -22.2206 -22.2206 -22.0676 -22.0675
    -7.2101  -6.8804  -6.6757  -6.6502  -6.2720  -5.2307  -5.1314  -4.7546
    -4.6728  -4.4228   0.5509   0.6406   0.7005   1.3052   1.5514   1.5633
     1.6293   1.7861   1.9810   2.2087   2.2557   2.3257   2.3479   3.1832
     3.3314   3.3635   3.4105   3.5938   3.6748   3.6884   3.8452   4.0869
     4.5567   5.2530   5.3908   5.7055   6.0960   6.6563   6.8236   6.8448
     7.1956   7.5824

          k = 1.5243 0.0000 0.1485 ( 36476 PWs)   bands (ev):

   -44.1480 -44.1480 -22.2822 -22.2822 -22.2206 -22.2206 -22.0676 -22.0675
    -7.1768  -6.9533  -6.6834  -6.6578  -6.1302  -5.5024  -4.9490  -4.7151
    -4.6819  -4.4481   0.5257   0.7383   0.8167   1.0648   1.4184   1.4746
     1.5858   1.7136   2.0584   2.0754   2.2972   2.6454   2.8635   3.1505
     3.3063   3.3924   3.4031   3.5876   3.6175   3.7037   3.7057   4.1229
     4.2300   4.5730   5.9436   6.1077   6.2101   6.5607   6.8200   6.8866
     7.0481   7.4932

          k = 1.5243 0.0000-0.2971 ( 36508 PWs)   bands (ev):

   -44.1481 -44.1481 -22.2822 -22.2822 -22.2206 -22.2206 -22.0675 -22.0675
    -7.0823  -7.0823  -6.6743  -6.6743  -5.8365  -5.8365  -4.8146  -4.8146
    -4.5399  -4.5399   0.6303   0.6303   1.0813   1.0813   1.1741   1.1741
     1.6189   1.6189   2.0382   2.0382   2.8287   2.8287   3.1553   3.1553
     3.3100   3.3100   3.3916   3.3916   3.6655   3.6655   3.7967   3.7967
     4.1614   4.1614   6.1889   6.1889   6.6384   6.6384   6.7743   6.7743
     7.1221   7.1221

          k =-0.2541-0.4514 0.0000 ( 36444 PWs)   bands (ev):

   -44.1490 -44.1490 -22.2870 -22.2870 -22.1967 -22.1967 -22.0706 -22.0705
    -7.5300  -7.0464  -6.9757  -6.7828  -6.4973  -5.3031  -5.1030  -4.8653
    -4.7721  -4.0027   0.5786   0.9341   1.1489   1.2997   1.4457   1.5039
     2.0175   2.1218   2.2101   2.3292   2.4421   3.1712   3.2664   3.3287
     3.5748   3.6203   3.7455   3.7792   3.9009   4.0450   4.1331   4.1504
     4.4405   4.5361   5.9105   6.0314   6.3872   6.5256   6.7499   6.8618
     6.8866   6.9997

          k =-0.2541-0.4514 0.1485 ( 36461 PWs)   bands (ev):

   -44.1490 -44.1490 -22.2870 -22.2870 -22.1967 -22.1967 -22.0705 -22.0705
    -7.4921  -7.2101  -6.8773  -6.7932  -6.3601  -5.6359  -4.9388  -4.7979
    -4.6829  -4.0924   0.5995   0.9786   1.0478   1.2762   1.3266   1.6415
     1.8817   2.2962   2.3423   2.4473   2.5410   2.8812   3.2512   3.2658
     3.3855   3.5359   3.7593   3.8425   3.8758   3.9899   4.1082   4.1379
     4.7132   4.9253   5.7658   5.9065   6.1863   6.2872   6.7150   6.7445
     7.1321   7.2718

          k =-0.2541-0.4514-0.2971 ( 36490 PWs)   bands (ev):

   -44.1490 -44.1490 -22.2870 -22.2870 -22.1967 -22.1967 -22.0705 -22.0705
    -7.3813  -7.3813  -6.8226  -6.8226  -6.0355  -6.0355  -4.8610  -4.8610
    -4.3411  -4.3411   0.7286   0.7286   1.2842   1.2842   1.3139   1.3139
     2.2812   2.2812   2.4269   2.4269   2.6917   2.6917   3.2117   3.2117
     3.2691   3.2691   3.7933   3.7933   3.9953   3.9953   4.1150   4.1150
     5.1626   5.1626   5.6385   5.6385   6.0374   6.0374   6.7188   6.7188
     7.3583   7.3583

          k = 0.0000-0.3869 0.0000 ( 36477 PWs)   bands (ev):

   -44.1494 -44.1493 -22.2889 -22.2889 -22.1868 -22.1868 -22.0718 -22.0717
    -7.6478  -7.1219  -7.0805  -6.8270  -6.5615  -5.3423  -5.1083  -4.9083
    -4.8133  -3.8633   0.5180   0.7988   1.0170   1.1859   1.6260   1.6463
     2.4302   2.4552   2.6929   2.9825   2.9950   3.0129   3.0476   3.0976
     3.4088   3.5854   3.7181   3.9247   3.9633   4.0106   4.1371   4.6364
     5.0219   5.4080   5.7008   5.7584   5.9391   6.1669   6.5676   6.6094
     6.9446   7.2036

          k = 0.0000-0.3869 0.1485 ( 36452 PWs)   bands (ev):

   -44.1493 -44.1493 -22.2889 -22.2889 -22.1868 -22.1868 -22.0718 -22.0717
    -7.6088  -7.3151  -6.9407  -6.8377  -6.4340  -5.6927  -4.9588  -4.8368
    -4.6820  -3.9767   0.5438   0.9958   1.0099   1.1471   1.2026   2.0559
     2.1878   2.4586   2.6385   2.9345   2.9774   2.9860   2.9940   3.3029
     3.6075   3.6699   3.6833   3.9089   4.0109   4.0580   4.0762   4.6494
     4.8684   5.0143   5.8098   5.9537   6.0865   6.0902   6.5102   6.7786
     6.8072   7.1796

          k = 0.0000-0.3869-0.2971 ( 36454 PWs)   bands (ev):

   -44.1493 -44.1493 -22.2889 -22.2889 -22.1868 -22.1868 -22.0717 -22.0717
    -7.4945  -7.4945  -6.8706  -6.8706  -6.1084  -6.1084  -4.8932  -4.8932
    -4.2794  -4.2794   0.7289   0.7289   1.1234   1.1234   1.4810   1.4810
     2.5370   2.5370   2.6961   2.6961   2.9908   2.9908   3.0451   3.0451
     3.7870   3.7870   3.8957   3.8957   3.9872   3.9872   4.4072   4.4072
     4.7096   4.7096   5.9069   5.9069   6.3219   6.3219   6.3923   6.3923
     7.0998   7.0998

          k =-2.0325 0.0000 0.0000 ( 36452 PWs)   bands (ev):

   -44.1493 -44.1493 -22.2889 -22.2889 -22.1868 -22.1868 -22.0718 -22.0717
    -7.6417  -7.1165  -7.0795  -6.8323  -6.5731  -5.3422  -5.1128  -4.9086
    -4.8113  -3.8639   0.5223   0.8049   1.1286   1.1838   1.6352   1.6876
     2.4335   2.4527   2.7013   2.8681   2.9461   2.9809   2.9906   3.1246
     3.5086   3.5740   3.7391   3.8075   3.9494   3.9536   4.1369   4.6374
     5.0138   5.3980   5.7082   5.7939   5.9579   6.1784   6.5587   6.5893
     6.9450   7.1943

          k =-2.0325 0.0000 0.1485 ( 36456 PWs)   bands (ev):

   -44.1494 -44.1493 -22.2889 -22.2889 -22.1868 -22.1868 -22.0718 -22.0717
    -7.6028  -7.3094  -6.9441  -6.8438  -6.4403  -5.6926  -4.9658  -4.8361
    -4.6792  -3.9767   0.5449   1.0201   1.0332   1.1877   1.2689   2.0667
     2.2008   2.4622   2.6453   2.8146   2.8672   2.9842   2.9900   3.3584
     3.5870   3.6738   3.7030   3.8848   3.9547   4.0119   4.0741   4.6503
     4.8646   5.0130   5.8301   5.9578   6.0774   6.1005   6.4890   6.7795
     6.8176   7.1675

          k =-2.0325 0.0000-0.2971 ( 36460 PWs)   bands (ev):

   -44.1493 -44.1493 -22.2889 -22.2889 -22.1868 -22.1868 -22.0717 -22.0717
    -7.4885  -7.4885  -6.8772  -6.8772  -6.1098  -6.1098  -4.8963  -4.8963
    -4.2781  -4.2781   0.7276   0.7276   1.2005   1.2005   1.4923   1.4923
     2.5418   2.5418   2.6469   2.6469   2.9880   2.9880   2.9949   2.9949
     3.7988   3.7988   3.8897   3.8897   3.9441   3.9441   4.4018   4.4018
     4.7095   4.7095   5.8944   5.8944   6.3301   6.3301   6.3943   6.3943
     7.0874   7.0874

     the Fermi energy is     5.3357 ev

!    total energy              =   -4240.94392840 Ry

     total all-electron energy =   -150287.637623 Ry
     estimated scf accuracy    <          1.9E-11 Ry
     smearing contrib. (-TS)   =      -0.00000298 Ry
     internal energy E=F+TS    =   -4240.94392542 Ry

     The total energy is F=E-TS. E is the sum of the following terms:
     one-electron contribution =    -165.44699260 Ry
     hartree contribution      =     116.19887681 Ry
     xc contribution           =    -201.43480770 Ry
     ewald contribution        =    -222.74984732 Ry
     one-center paw contrib.   =   -3767.51115461 Ry

     convergence has been achieved in  16 iterations

     Forces acting on atoms (cartesian axes, Ry/au):

     atom    1 type  1   force =     0.00000000   -0.01504757    0.00000000
     atom    2 type  1   force =     0.00000000    0.01504757    0.00000000
     atom    3 type  2   force =     0.00000000    0.00048808    0.00000000
     atom    4 type  2   force =     0.00000000   -0.00048808    0.00000000
     atom    5 type  2   force =     0.00000000    0.00319561    0.00043619
     atom    6 type  2   force =     0.00000000   -0.00319561   -0.00043619
     atom    7 type  2   force =     0.00000000    0.00319561   -0.00043619
     atom    8 type  2   force =     0.00000000   -0.00319561    0.00043619
     atom    9 type  2   force =     0.00000000    0.01720394    0.01580498
     atom   10 type  2   force =     0.00000000   -0.01720394   -0.01580498
     atom   11 type  2   force =    -0.00000000    0.01720394   -0.01580498
     atom   12 type  2   force =     0.00000000   -0.01720394    0.01580498

     Total force =     0.051750     Total SCF correction =     0.000007


     Computing stress (Cartesian axis) and pressure

          total   stress  (Ry/bohr**3)                   (kbar)     P=       -3.89
  -0.00001909   0.00000000   0.00000000           -2.81        0.00        0.00
   0.00000000  -0.00002575   0.00000000            0.00       -3.79        0.00
   0.00000000   0.00000000  -0.00003440            0.00        0.00       -5.06

 
     init_run     :     18.21s CPU     18.69s WALL (       1 calls)
     electrons    :    927.45s CPU    937.47s WALL (       1 calls)
     forces       :      6.62s CPU      6.83s WALL (       1 calls)
     stress       :     41.10s CPU     41.70s WALL (       1 calls)

     Called by init_run:
     wfcinit      :     13.94s CPU     14.13s WALL (       1 calls)
     potinit      :      1.37s CPU      1.41s WALL (       1 calls)
     hinit0       :      1.72s CPU      1.77s WALL (       1 calls)

     Called by electrons:
     c_bands      :    788.04s CPU    791.45s WALL (      17 calls)
     sum_band     :    116.73s CPU    120.33s WALL (      17 calls)
     v_of_rho     :      5.00s CPU      5.24s WALL (      17 calls)
     newd         :     12.53s CPU     15.46s WALL (      17 calls)
     PAW_pot      :      5.32s CPU      5.32s WALL (      17 calls)
     mix_rho      :      0.75s CPU      0.77s WALL (      17 calls)

     Called by c_bands:
     init_us_2    :     10.53s CPU     10.58s WALL (    2331 calls)
     cegterg      :    719.09s CPU    722.02s WALL (    1071 calls)

     Called by *egterg:
     cdiaghg      :     28.93s CPU     28.99s WALL (    8447 calls)
     h_psi        :    544.54s CPU    547.32s WALL (    8573 calls)
     s_psi        :     45.63s CPU     45.71s WALL (    8573 calls)
     g_psi        :      2.08s CPU      2.10s WALL (    7439 calls)

     Called by h_psi:
     h_psi:calbec :     39.27s CPU     39.35s WALL (    8573 calls)
     vloc_psi     :    456.91s CPU    459.45s WALL (    8573 calls)
     add_vuspsi   :     45.34s CPU     45.40s WALL (    8573 calls)

     General routines
     calbec       :     50.97s CPU     51.09s WALL (    9959 calls)
     fft          :      3.13s CPU      3.24s WALL (     245 calls)
     ffts         :      0.07s CPU      0.07s WALL (      34 calls)
     fftw         :    415.72s CPU    417.97s WALL (  431018 calls)
     interpolate  :      0.26s CPU      0.26s WALL (      17 calls)
 
     Parallel routines
 
     PWSCF        :  16m33.63s CPU  16m45.02s WALL

 
   This run was terminated on:  15:35: 1  19Nov2021            

=------------------------------------------------------------------------------=
   JOB DONE.
=------------------------------------------------------------------------------=
