
     Program PWSCF v.6.8 starts on 19Nov2021 at 15:19:24 

     This program is part of the open-source Quantum ESPRESSO suite
     for quantum simulation of materials; please cite
         "P. Giannozzi et al., J. Phys.:Condens. Matter 21 395502 (2009);
         "P. Giannozzi et al., J. Phys.:Condens. Matter 29 465901 (2017);
         "P. Giannozzi et al., J. Chem. Phys. 152 154105 (2020);
          URL http://www.quantum-espresso.org", 
     in publications or presentations arising from this work. More details at
     http://www.quantum-espresso.org/quote

     Parallel version (MPI), running on    10 processors

     MPI processes distributed on     1 nodes
     R & G space division:  proc/nbgrp/npool/nimage =      10
     71010 MiB available memory on the printing compute node when the environment starts
 
     Waiting for input...
     Reading input from standard input

     Current dimensions of program PWSCF are:
     Max number of different atomic species (ntypx) = 10
     Max number of k-points (npk) =  40000
     Max angular momentum in pseudopotentials (lmaxx) =  4
     file Zr.pbe-spn-kjpaw_psl.1.0.0.UPF: wavefunction(s)  4S 4P renormalized
     file Te.pbe-n-kjpaw_psl.1.0.0.UPF: wavefunction(s)  5S 5P renormalized
     Message from routine setup:
     using ibrav=0 with symmetry is DISCOURAGED, use correct ibrav instead

     Subspace diagonalization in iterative solution of the eigenvalue problem:
     a serial algorithm will be used

 
     Parallelization info
     --------------------
     sticks:   dense  smooth     PW     G-vecs:    dense   smooth      PW
     Min         734     293     87               115340    29174    4753
     Max         735     295     88               115345    29176    4760
     Sum        7345    2937    873              1153415   291749   47557
 
     Using Slab Decomposition
 


     bravais-lattice index     =            0
     lattice parameter (alat)  =      15.5510  a.u.
     unit-cell volume          =    3018.5011 (a.u.)^3
     number of atoms/cell      =           12
     number of atomic types    =            2
     number of electrons       =        84.00
     number of Kohn-Sham states=           50
     kinetic-energy cutoff     =      80.0000  Ry
     charge density cutoff     =     800.0000  Ry
     scf convergence threshold =      1.0E-10
     mixing beta               =       0.7000
     number of iterations used =            8  plain     mixing
     Exchange-correlation= SLA  PW   PBX  PBC
                           (   1   4   3   4   0   0   0)

     celldm(1)=  15.551040  celldm(2)=   0.000000  celldm(3)=   0.000000
     celldm(4)=   0.000000  celldm(5)=   0.000000  celldm(6)=   0.000000

     crystal axes: (cart. coord. in units of alat)
               a(1) = (   0.246007  -0.969268   0.000000 )  
               a(2) = (   0.246007   0.969268   0.000000 )  
               a(3) = (   0.000000   0.000000   1.683031 )  

     reciprocal axes: (cart. coord. in units 2 pi/alat)
               b(1) = (  2.032465 -0.515853  0.000000 )  
               b(2) = (  2.032465  0.515853  0.000000 )  
               b(3) = (  0.000000  0.000000  0.594166 )  


     PseudoPot. # 1 for Zr read from file:
     pseudo/Zr.pbe-spn-kjpaw_psl.1.0.0.UPF
     MD5 check sum: 02112c41713a0468aff2bb39ef194e36
     Pseudo is Projector augmented-wave + core cor, Zval = 12.0
     Generated using &quot;atomic&quot; code by A. Dal Corso  v.6.2.2
     Shape of augmentation charge: PSQ
     Using radial grid of 1225 points,  6 beta functions with: 
                l(1) =   0
                l(2) =   0
                l(3) =   1
                l(4) =   1
                l(5) =   2
                l(6) =   2
     Q(r) pseudized with 0 coefficients 


     PseudoPot. # 2 for Te read from file:
     pseudo/Te.pbe-n-kjpaw_psl.1.0.0.UPF
     MD5 check sum: 66247bff2bd9dbf220fbb0bf5ab56e9d
     Pseudo is Projector augmented-wave + core cor, Zval =  6.0
     Generated using &quot;atomic&quot; code by A. Dal Corso  v.6.3
     Shape of augmentation charge: PSQ
     Using radial grid of 1245 points,  6 beta functions with: 
                l(1) =   0
                l(2) =   0
                l(3) =   1
                l(4) =   1
                l(5) =   2
                l(6) =   2
     Q(r) pseudized with 0 coefficients 


     atomic species   valence    mass     pseudopotential
        Zr            12.00    91.22000     Zr( 1.00)
        Te             6.00   127.60000     Te( 1.00)

      8 Sym. Ops., with inversion, found ( 4 have fractional translation)



   Cartesian axes

     site n.     atom                  positions (alat units)
         1           Zr  tau(   1) = (   0.0000000   0.6118719   0.4207578  )
         2           Zr  tau(   2) = (   0.2460067   0.3573962   1.2622733  )
         3           Te  tau(   3) = (   0.2460067   0.3343743   0.4207578  )
         4           Te  tau(   4) = (   0.0000000   0.6348938   1.2622733  )
         5           Te  tau(   5) = (   0.2460067   0.8069742   0.2501169  )
         6           Te  tau(   6) = (   0.0000000   0.1622939   1.4329142  )
         7           Te  tau(   7) = (   0.2460067   0.8069742   0.5913987  )
         8           Te  tau(   8) = (   0.0000000   0.1622939   1.0916324  )
         9           Te  tau(   9) = (   0.0000000   0.4039175   0.7204121  )
        10           Te  tau(  10) = (   0.2460067   0.5653506   0.9626190  )
        11           Te  tau(  11) = (   0.0000000   0.4039175   0.1211034  )
        12           Te  tau(  12) = (   0.2460067   0.5653506   1.5619276  )

     number of k points=    63  Methfessel-Paxton smearing, width (Ry)=  0.0030
                       cart. coord. in units 2pi/alat
        k(    1) = (   0.0000000   0.0000000   0.0000000), wk =   0.0078125
        k(    2) = (   0.0000000   0.0000000   0.1485415), wk =   0.0156250
        k(    3) = (   0.0000000   0.0000000  -0.2970830), wk =   0.0078125
        k(    4) = (   0.2540581   0.0644816   0.0000000), wk =   0.0312500
        k(    5) = (   0.2540581   0.0644816   0.1485415), wk =   0.0625000
        k(    6) = (   0.2540581   0.0644816  -0.2970830), wk =   0.0312500
        k(    7) = (   0.5081162   0.1289633   0.0000000), wk =   0.0312500
        k(    8) = (   0.5081162   0.1289633   0.1485415), wk =   0.0625000
        k(    9) = (   0.5081162   0.1289633  -0.2970830), wk =   0.0312500
        k(   10) = (   0.7621743   0.1934449   0.0000000), wk =   0.0312500
        k(   11) = (   0.7621743   0.1934449   0.1485415), wk =   0.0625000
        k(   12) = (   0.7621743   0.1934449  -0.2970830), wk =   0.0312500
        k(   13) = (  -1.0162324  -0.2579266   0.0000000), wk =   0.0156250
        k(   14) = (  -1.0162324  -0.2579266   0.1485415), wk =   0.0312500
        k(   15) = (  -1.0162324  -0.2579266  -0.2970830), wk =   0.0156250
        k(   16) = (   0.5081162   0.0000000   0.0000000), wk =   0.0156250
        k(   17) = (   0.5081162   0.0000000   0.1485415), wk =   0.0312500
        k(   18) = (   0.5081162   0.0000000  -0.2970830), wk =   0.0156250
        k(   19) = (   0.7621743   0.0644816   0.0000000), wk =   0.0312500
        k(   20) = (   0.7621743   0.0644816   0.1485415), wk =   0.0625000
        k(   21) = (   0.7621743   0.0644816  -0.2970830), wk =   0.0312500
        k(   22) = (   1.0162324   0.1289633   0.0000000), wk =   0.0312500
        k(   23) = (   1.0162324   0.1289633   0.1485415), wk =   0.0625000
        k(   24) = (   1.0162324   0.1289633  -0.2970830), wk =   0.0312500
        k(   25) = (  -0.7621743  -0.3224082   0.0000000), wk =   0.0312500
        k(   26) = (  -0.7621743  -0.3224082   0.1485415), wk =   0.0625000
        k(   27) = (  -0.7621743  -0.3224082  -0.2970830), wk =   0.0312500
        k(   28) = (  -0.5081162  -0.2579266   0.0000000), wk =   0.0312500
        k(   29) = (  -0.5081162  -0.2579266   0.1485415), wk =   0.0625000
        k(   30) = (  -0.5081162  -0.2579266  -0.2970830), wk =   0.0312500
        k(   31) = (  -0.2540581  -0.1934449   0.0000000), wk =   0.0312500
        k(   32) = (  -0.2540581  -0.1934449   0.1485415), wk =   0.0625000
        k(   33) = (  -0.2540581  -0.1934449  -0.2970830), wk =   0.0312500
        k(   34) = (   0.0000000  -0.1289633   0.0000000), wk =   0.0156250
        k(   35) = (   0.0000000  -0.1289633   0.1485415), wk =   0.0312500
        k(   36) = (   0.0000000  -0.1289633  -0.2970830), wk =   0.0156250
        k(   37) = (   1.0162324   0.0000000   0.0000000), wk =   0.0156250
        k(   38) = (   1.0162324   0.0000000   0.1485415), wk =   0.0312500
        k(   39) = (   1.0162324   0.0000000  -0.2970830), wk =   0.0156250
        k(   40) = (   1.2702905   0.0644816   0.0000000), wk =   0.0312500
        k(   41) = (   1.2702905   0.0644816   0.1485415), wk =   0.0625000
        k(   42) = (   1.2702905   0.0644816  -0.2970830), wk =   0.0312500
        k(   43) = (  -0.5081162  -0.3868899   0.0000000), wk =   0.0312500
        k(   44) = (  -0.5081162  -0.3868899   0.1485415), wk =   0.0625000
        k(   45) = (  -0.5081162  -0.3868899  -0.2970830), wk =   0.0312500
        k(   46) = (  -0.2540581  -0.3224082   0.0000000), wk =   0.0312500
        k(   47) = (  -0.2540581  -0.3224082   0.1485415), wk =   0.0625000
        k(   48) = (  -0.2540581  -0.3224082  -0.2970830), wk =   0.0312500
        k(   49) = (   0.0000000  -0.2579266   0.0000000), wk =   0.0156250
        k(   50) = (   0.0000000  -0.2579266   0.1485415), wk =   0.0312500
        k(   51) = (   0.0000000  -0.2579266  -0.2970830), wk =   0.0156250
        k(   52) = (   1.5243485   0.0000000   0.0000000), wk =   0.0156250
        k(   53) = (   1.5243485   0.0000000   0.1485415), wk =   0.0312500
        k(   54) = (   1.5243485   0.0000000  -0.2970830), wk =   0.0156250
        k(   55) = (  -0.2540581  -0.4513715   0.0000000), wk =   0.0312500
        k(   56) = (  -0.2540581  -0.4513715   0.1485415), wk =   0.0625000
        k(   57) = (  -0.2540581  -0.4513715  -0.2970830), wk =   0.0312500
        k(   58) = (   0.0000000  -0.3868899   0.0000000), wk =   0.0156250
        k(   59) = (   0.0000000  -0.3868899   0.1485415), wk =   0.0312500
        k(   60) = (   0.0000000  -0.3868899  -0.2970830), wk =   0.0156250
        k(   61) = (  -2.0324647   0.0000000   0.0000000), wk =   0.0078125
        k(   62) = (  -2.0324647   0.0000000   0.1485415), wk =   0.0156250
        k(   63) = (  -2.0324647   0.0000000  -0.2970830), wk =   0.0078125

     Dense  grid:  1153415 G-vectors     FFT dimensions: ( 144, 144, 240)

     Smooth grid:   291749 G-vectors     FFT dimensions: (  90,  90, 150)

     Estimated max dynamical RAM per process >     657.19 MB

     Estimated total dynamical RAM >       6.42 GB

     Initial potential from superposition of free atoms

     starting charge   83.99353, renormalised to   84.00000
     Starting wfcs are   66 randomized atomic wfcs
     Checking if some PAW data can be deallocated... 

     total cpu time spent up to now is       19.4 secs

     Self-consistent Calculation

     iteration #  1     ecut=    80.00 Ry     beta= 0.70
     Davidson diagonalization with overlap
     ethr =  1.00E-02,  avg # of iterations =  2.0

     Threshold (ethr) on eigenvalues was too large:
     Diagonalizing with lowered threshold

     Davidson diagonalization with overlap
     ethr =  3.74E-04,  avg # of iterations =  4.1

     total cpu time spent up to now is      103.8 secs

     total energy              =   -4240.71442448 Ry
     estimated scf accuracy    <       0.42551349 Ry

     iteration #  2     ecut=    80.00 Ry     beta= 0.70
     Davidson diagonalization with overlap
     ethr =  5.07E-04,  avg # of iterations =  7.5

     total cpu time spent up to now is      163.9 secs

     total energy              =   -4240.62136059 Ry
     estimated scf accuracy    <       2.17371440 Ry

     iteration #  3     ecut=    80.00 Ry     beta= 0.70
     Davidson diagonalization with overlap
     ethr =  5.07E-04,  avg # of iterations =  5.1

     total cpu time spent up to now is      215.3 secs

     total energy              =   -4240.91434670 Ry
     estimated scf accuracy    <       0.01944644 Ry

     iteration #  4     ecut=    80.00 Ry     beta= 0.70
     Davidson diagonalization with overlap
     c_bands:  2 eigenvalues not converged
     c_bands:  1 eigenvalues not converged
     c_bands:  1 eigenvalues not converged
     c_bands:  1 eigenvalues not converged
     c_bands:  1 eigenvalues not converged
     c_bands:  1 eigenvalues not converged
     c_bands:  2 eigenvalues not converged
     c_bands:  1 eigenvalues not converged
     c_bands:  2 eigenvalues not converged
     ethr =  2.32E-05,  avg # of iterations = 16.5

     total cpu time spent up to now is      305.2 secs

     total energy              =   -4240.93143705 Ry
     estimated scf accuracy    <       0.09274929 Ry

     iteration #  5     ecut=    80.00 Ry     beta= 0.70
     Davidson diagonalization with overlap
     ethr =  2.32E-05,  avg # of iterations =  5.6

     total cpu time spent up to now is      351.6 secs

     total energy              =   -4240.93358492 Ry
     estimated scf accuracy    <       0.02071886 Ry

     iteration #  6     ecut=    80.00 Ry     beta= 0.70
     Davidson diagonalization with overlap
     ethr =  2.32E-05,  avg # of iterations =  2.7

     total cpu time spent up to now is      390.9 secs

     total energy              =   -4240.93478763 Ry
     estimated scf accuracy    <       0.00259253 Ry

     iteration #  7     ecut=    80.00 Ry     beta= 0.70
     Davidson diagonalization with overlap
     c_bands:  1 eigenvalues not converged
     c_bands:  1 eigenvalues not converged
     c_bands:  1 eigenvalues not converged
     c_bands:  1 eigenvalues not converged
     ethr =  3.09E-06,  avg # of iterations = 13.9

     total cpu time spent up to now is      462.8 secs

     total energy              =   -4240.93630277 Ry
     estimated scf accuracy    <       0.00272041 Ry

     iteration #  8     ecut=    80.00 Ry     beta= 0.70
     Davidson diagonalization with overlap
     ethr =  3.09E-06,  avg # of iterations =  2.3

     total cpu time spent up to now is      499.3 secs

     total energy              =   -4240.93628199 Ry
     estimated scf accuracy    <       0.00063421 Ry

     iteration #  9     ecut=    80.00 Ry     beta= 0.70
     Davidson diagonalization with overlap
     ethr =  7.55E-07,  avg # of iterations =  5.9

     total cpu time spent up to now is      544.6 secs

     total energy              =   -4240.93640901 Ry
     estimated scf accuracy    <       0.00000745 Ry

     iteration # 10     ecut=    80.00 Ry     beta= 0.70
     Davidson diagonalization with overlap
     c_bands:  1 eigenvalues not converged
     c_bands:  1 eigenvalues not converged
     c_bands:  1 eigenvalues not converged
     c_bands:  1 eigenvalues not converged
     ethr =  8.87E-09,  avg # of iterations = 11.8

     total cpu time spent up to now is      622.5 secs

     total energy              =   -4240.93643054 Ry
     estimated scf accuracy    <       0.00002135 Ry

     iteration # 11     ecut=    80.00 Ry     beta= 0.70
     Davidson diagonalization with overlap
     ethr =  8.87E-09,  avg # of iterations =  4.0

     total cpu time spent up to now is      667.9 secs

     total energy              =   -4240.93643360 Ry
     estimated scf accuracy    <       0.00000011 Ry

     iteration # 12     ecut=    80.00 Ry     beta= 0.70
     Davidson diagonalization with overlap
     ethr =  1.33E-10,  avg # of iterations = 11.0

     total cpu time spent up to now is      746.5 secs

     total energy              =   -4240.93643376 Ry
     estimated scf accuracy    <       0.00000073 Ry

     iteration # 13     ecut=    80.00 Ry     beta= 0.70
     Davidson diagonalization with overlap
     c_bands:  1 eigenvalues not converged
     ethr =  1.33E-10,  avg # of iterations =  5.5

     total cpu time spent up to now is      796.4 secs

     total energy              =   -4240.93643383 Ry
     estimated scf accuracy    <       0.00000002 Ry

     iteration # 14     ecut=    80.00 Ry     beta= 0.70
     Davidson diagonalization with overlap
     ethr =  2.41E-11,  avg # of iterations =  6.0

     total cpu time spent up to now is      847.9 secs

     total energy              =   -4240.93643384 Ry
     estimated scf accuracy    <          9.1E-09 Ry

     iteration # 15     ecut=    80.00 Ry     beta= 0.70
     Davidson diagonalization with overlap
     ethr =  1.08E-11,  avg # of iterations =  1.3

     total cpu time spent up to now is      882.6 secs

     total energy              =   -4240.93643384 Ry
     estimated scf accuracy    <          2.8E-09 Ry

     iteration # 16     ecut=    80.00 Ry     beta= 0.70
     Davidson diagonalization with overlap
     ethr =  3.29E-12,  avg # of iterations =  5.7

     total cpu time spent up to now is      930.2 secs

     total energy              =   -4240.93643384 Ry
     estimated scf accuracy    <          3.7E-10 Ry

     iteration # 17     ecut=    80.00 Ry     beta= 0.70
     Davidson diagonalization with overlap
     ethr =  4.46E-13,  avg # of iterations =  3.8

     total cpu time spent up to now is      969.9 secs

     total energy              =   -4240.93643384 Ry
     estimated scf accuracy    <          1.2E-10 Ry

     iteration # 18     ecut=    80.00 Ry     beta= 0.70
     Davidson diagonalization with overlap
     ethr =  1.39E-13,  avg # of iterations =  3.5

     total cpu time spent up to now is     1008.0 secs

     End of self-consistent calculation

          k = 0.0000 0.0000 0.0000 ( 36359 PWs)   bands (ev):

   -44.1560 -44.1560 -22.2996 -22.2996 -22.1951 -22.1951 -22.0768 -22.0767
    -7.6459  -7.1745  -6.9425  -6.7714  -6.5815  -5.3080  -5.1294  -4.9113
    -4.8549  -3.8658   0.4558   0.6740   0.7803   1.0521   1.4858   1.6049
     2.4154   2.5050   2.6056   2.9978   3.0479   3.0861   3.1255   3.5023
     3.5500   3.5876   3.8541   4.0387   4.0943   4.2825   4.3173   4.6229
     5.1716   5.5571   5.5601   5.5981   5.8547   6.0519   6.4124   6.7886
     6.9341   7.3012

          k = 0.0000 0.0000 0.1485 ( 36415 PWs)   bands (ev):

   -44.1560 -44.1560 -22.2996 -22.2996 -22.1951 -22.1951 -22.0768 -22.0767
    -7.6069  -7.3171  -6.8544  -6.7785  -6.4542  -5.6934  -4.9329  -4.8670
    -4.7079  -3.9822   0.4949   0.7120   0.9096   1.0565   1.0578   2.0386
     2.1217   2.4390   2.5729   3.0508   3.0797   3.0969   3.3178   3.3640
     3.6711   3.6925   3.8300   4.0292   4.0480   4.3022   4.3291   4.6411
     4.9406   5.0625   5.7055   5.9145   6.0453   6.0721   6.5854   6.7068
     6.7705   7.2815

          k = 0.0000 0.0000-0.2971 ( 36410 PWs)   bands (ev):

   -44.1560 -44.1560 -22.2996 -22.2996 -22.1951 -22.1951 -22.0768 -22.0768
    -7.4926  -7.4926  -6.8007  -6.8007  -6.1198  -6.1198  -4.8967  -4.8967
    -4.2921  -4.2921   0.6734   0.6734   0.8479   0.8479   1.4579   1.4579
     2.5014   2.5014   2.7012   2.7012   3.0641   3.0641   3.3511   3.3511
     3.8208   3.8208   3.8965   3.8965   4.3157   4.3157   4.4238   4.4238
     4.7252   4.7252   5.9616   5.9616   6.2466   6.2466   6.3798   6.3798
     7.1700   7.1701

          k = 0.2541 0.0645 0.0000 ( 36396 PWs)   bands (ev):

   -44.1556 -44.1556 -22.2976 -22.2976 -22.2052 -22.2052 -22.0756 -22.0755
    -7.5324  -7.0893  -6.8413  -6.7257  -6.5232  -5.2753  -5.1151  -4.8707
    -4.8135  -4.0024   0.5432   0.8100   0.9179   1.1700   1.2722   1.4996
     1.9388   2.1327   2.2167   2.5215   2.5945   2.9970   3.5027   3.6440
     3.6653   3.6962   3.7370   3.8088   4.0341   4.1334   4.2074   4.2666
     4.4608   4.7243   5.6748   5.9986   6.2972   6.5404   6.6172   6.8344
     7.0008   7.1429

          k = 0.2541 0.0645 0.1485 ( 36423 PWs)   bands (ev):

   -44.1556 -44.1556 -22.2976 -22.2976 -22.2052 -22.2052 -22.0755 -22.0755
    -7.4944  -7.2163  -6.7857  -6.7318  -6.3821  -5.6381  -4.9108  -4.8278
    -4.7090  -4.0958   0.5699   0.8507   0.9780   0.9996   1.1372   1.6139
     1.8715   2.3064   2.4964   2.5409   2.5771   2.9149   3.2503   3.3012
     3.6461   3.6733   3.8153   3.8821   3.9952   4.0844   4.2201   4.2793
     4.6986   5.0585   5.7976   5.8129   6.2213   6.2763   6.4831   6.6682
     7.2665   7.2838

          k = 0.2541 0.0645-0.2971 ( 36436 PWs)   bands (ev):

   -44.1556 -44.1556 -22.2976 -22.2976 -22.2052 -22.2052 -22.0755 -22.0755
    -7.3837  -7.3837  -6.7496  -6.7496  -6.0478  -6.0478  -4.8629  -4.8629
    -4.3532  -4.3532   0.7056   0.7056   0.9546   0.9546   1.3028   1.3028
     2.2837   2.2837   2.6119   2.6119   2.7085   2.7085   3.0857   3.0857
     3.5849   3.5849   3.8485   3.8485   4.0200   4.0200   4.2746   4.2746
     5.2000   5.2000   5.7382   5.7382   6.0711   6.0711   6.4738   6.4738
     7.4358   7.4360

          k = 0.5081 0.1290 0.0000 ( 36499 PWs)   bands (ev):

   -44.1547 -44.1547 -22.2929 -22.2929 -22.2293 -22.2293 -22.0725 -22.0724
    -7.2156  -6.8888  -6.5962  -6.5511  -6.3310  -5.2224  -5.1241  -4.7638
    -4.7115  -4.4158   0.5041   0.7348   0.7539   1.1761   1.3121   1.4970
     1.6583   1.8273   1.9713   2.1633   2.1715   2.2752   2.4553   3.2192
     3.3413   3.4096   3.4514   3.5601   3.7671   3.8453   3.9727   4.1532
     4.6571   5.3438   5.3612   5.8471   5.9156   6.5343   6.5474   6.8317
     7.3728   7.5629

          k = 0.5081 0.1290 0.1485 ( 36476 PWs)   bands (ev):

   -44.1547 -44.1547 -22.2929 -22.2929 -22.2293 -22.2293 -22.0725 -22.0724
    -7.1821  -6.9597  -6.6005  -6.5890  -6.1620  -5.5068  -4.9291  -4.7400
    -4.6995  -4.4487   0.5103   0.7485   0.8977   1.0883   1.2149   1.4298
     1.4709   1.6794   2.0395   2.0666   2.3270   2.5584   2.8468   3.2517
     3.3318   3.3989   3.4702   3.5710   3.6313   3.7861   3.8479   4.2135
     4.4110   4.5983   6.0072   6.0750   6.2151   6.5435   6.5887   6.7114
     7.2187   7.4778

          k = 0.5081 0.1290-0.2971 ( 36466 PWs)   bands (ev):

   -44.1547 -44.1547 -22.2929 -22.2929 -22.2293 -22.2293 -22.0725 -22.0725
    -7.0875  -7.0875  -6.6035  -6.6035  -5.8514  -5.8514  -4.8116  -4.8116
    -4.5533  -4.5533   0.6197   0.6197   1.0992   1.0992   1.2587   1.2587
     1.3605   1.3605   2.0597   2.0597   2.7836   2.7836   3.1023   3.1023
     3.3255   3.3255   3.5442   3.5442   3.7062   3.7062   3.8419   3.8419
     4.3016   4.3016   6.2373   6.2373   6.5315   6.5315   6.7670   6.7670
     7.0847   7.0847

          k = 0.7622 0.1934 0.0000 ( 36521 PWs)   bands (ev):

   -44.1538 -44.1538 -22.2880 -22.2880 -22.2535 -22.2535 -22.0694 -22.0694
    -6.8322  -6.7158  -6.3329  -6.1191  -5.9769  -5.2796  -5.2795  -5.0533
    -4.6424  -4.6074   0.0037   0.2871   0.6603   1.1578   1.1632   1.2298
     1.4771   1.5892   1.9050   1.9470   2.2658   2.4322   2.5170   2.7373
     2.7610   3.2505   3.2836   3.3448   3.6427   3.6604   3.7791   3.8459
     3.9945   4.5669   5.7511   6.1565   6.2368   6.6652   6.7140   6.8068
     7.1937   7.5512

          k = 0.7622 0.1934 0.1485 ( 36503 PWs)   bands (ev):

   -44.1538 -44.1538 -22.2880 -22.2880 -22.2535 -22.2535 -22.0694 -22.0694
    -6.8147  -6.7315  -6.3263  -6.2151  -5.8293  -5.4174  -5.1933  -5.0742
    -4.6315  -4.6079   0.0795   0.3922   0.5434   0.9613   1.1677   1.2057
     1.4928   1.6617   1.7192   2.0878   2.1307   2.6452   2.6719   2.7940
     2.8603   3.1578   3.2720   3.3685   3.4667   3.6437   3.6845   3.8857
     4.0077   4.7586   5.3635   6.2307   6.5352   6.5753   6.7259   6.8938
     6.9682   7.4506

          k = 0.7622 0.1934-0.2971 ( 36522 PWs)   bands (ev):

   -44.1538 -44.1538 -22.2880 -22.2880 -22.2535 -22.2535 -22.0694 -22.0694
    -6.7724  -6.7724  -6.2950  -6.2950  -5.6131  -5.6131  -5.1264  -5.1264
    -4.6147  -4.6147   0.2802   0.2802   0.7065   0.7065   1.0681   1.0681
     1.5754   1.5754   1.9730   1.9730   2.3734   2.3734   2.7955   2.7955
     2.9904   2.9904   3.4078   3.4078   3.5660   3.5660   3.7841   3.7841
     4.2033   4.2033   5.9656   5.9656   6.3603   6.3603   6.8145   6.8145
     7.2915   7.2915

          k =-1.0162-0.2579 0.0000 ( 36506 PWs)   bands (ev):

   -44.1534 -44.1534 -22.2859 -22.2859 -22.2636 -22.2636 -22.0681 -22.0681
    -6.6824  -6.6623  -5.7720  -5.7615  -5.6512  -5.6380  -5.5577  -5.5575
    -4.5845  -4.5667   0.0893   0.1161   0.4395   0.4580   1.0132   1.0210
     1.4696   1.6761   2.2217   2.3388   2.3393   2.3417   2.7950   2.8307
     2.8346   2.9464   3.2547   3.2808   3.2841   3.5035   3.5850   3.6405
     3.8498   3.9168   6.3490   6.3800   6.4420   6.5273   6.9198   6.9844
     6.9941   7.0004

          k =-1.0162-0.2579 0.1485 ( 36506 PWs)   bands (ev):

   -44.1534 -44.1534 -22.2859 -22.2859 -22.2636 -22.2636 -22.0681 -22.0681
    -6.6788  -6.6646  -5.7738  -5.7647  -5.6751  -5.6705  -5.5240  -5.5209
    -4.5880  -4.5754   0.0028   0.0118   0.6545   0.6588   1.0347   1.0620
     1.4636   1.5743   1.9198   1.9842   2.3626   2.3726   2.7553   2.7635
     2.9534   2.9624   3.1853   3.2273   3.5379   3.5518   3.7092   3.7323
     4.1179   4.1195   5.8435   5.8509   6.3750   6.4468   6.8760   6.9155
     7.2155   7.2374

          k =-1.0162-0.2579-0.2971 ( 36528 PWs)   bands (ev):

   -44.1534 -44.1534 -22.2859 -22.2859 -22.2636 -22.2636 -22.0681 -22.0681
    -6.6711  -6.6711  -5.7724  -5.7724  -5.6903  -5.6903  -5.4972  -5.4972
    -4.5879  -4.5879  -0.0518  -0.0518   0.8979   0.8979   1.0633   1.0633
     1.5121   1.5121   1.6009   1.6009   2.3648   2.3648   2.7898   2.7898
     2.9270   2.9270   3.2126   3.2126   3.5847   3.5847   3.7701   3.7701
     4.6232   4.6232   5.2457   5.2457   6.3424   6.3424   6.9134   6.9134
     7.2814   7.2814

          k = 0.5081 0.0000 0.0000 ( 36503 PWs)   bands (ev):

   -44.1547 -44.1547 -22.2929 -22.2929 -22.2293 -22.2293 -22.0725 -22.0724
    -7.2218  -6.8914  -6.5886  -6.5524  -6.3261  -5.2234  -5.1205  -4.7599
    -4.7165  -4.4154   0.5027   0.7318   0.7608   1.1431   1.3073   1.4765
     1.6636   1.8328   1.9826   2.1341   2.1528   2.2647   2.4639   3.2008
     3.3485   3.3992   3.5062   3.5856   3.7745   3.8313   4.0107   4.1907
     4.6594   5.3459   5.3672   5.8815   5.8951   6.4950   6.4957   6.8670
     7.4014   7.5695

          k = 0.5081 0.0000 0.1485 ( 36453 PWs)   bands (ev):

   -44.1547 -44.1547 -22.2929 -22.2929 -22.2293 -22.2293 -22.0725 -22.0724
    -7.1883  -6.9642  -6.5917  -6.5854  -6.1611  -5.5077  -4.9227  -4.7418
    -4.7005  -4.4495   0.5083   0.7432   0.9037   1.0902   1.1857   1.4272
     1.4504   1.6760   2.0344   2.0692   2.3271   2.5317   2.8390   3.2378
     3.3265   3.4286   3.4889   3.5929   3.6255   3.8324   3.8462   4.2484
     4.4265   4.6000   6.0087   6.0927   6.2185   6.4923   6.5536   6.7418
     7.2447   7.4817

          k = 0.5081 0.0000-0.2971 ( 36452 PWs)   bands (ev):

   -44.1547 -44.1547 -22.2929 -22.2929 -22.2293 -22.2293 -22.0725 -22.0725
    -7.0933  -7.0933  -6.5962  -6.5962  -5.8523  -5.8523  -4.8073  -4.8073
    -4.5560  -4.5560   0.6152   0.6152   1.0997   1.0997   1.2917   1.2917
     1.3036   1.3036   2.0593   2.0593   2.7744   2.7744   3.0786   3.0786
     3.3189   3.3189   3.6018   3.6018   3.7123   3.7123   3.8453   3.8453
     4.3265   4.3265   6.2527   6.2527   6.4973   6.4973   6.7813   6.7813
     7.0866   7.0866

          k = 0.7622 0.0645 0.0000 ( 36505 PWs)   bands (ev):

   -44.1538 -44.1538 -22.2880 -22.2880 -22.2535 -22.2535 -22.0694 -22.0694
    -6.8416  -6.7141  -6.3234  -6.1218  -5.9760  -5.2803  -5.2744  -5.0531
    -4.6363  -4.6148  -0.0024   0.2988   0.6858   1.1518   1.1928   1.2438
     1.4335   1.5445   1.8824   1.9588   2.2179   2.4103   2.5011   2.7114
     2.7414   3.3065   3.3191   3.3492   3.6011   3.6627   3.8330   3.8706
     4.0131   4.6105   5.7497   6.1724   6.1989   6.6318   6.7630   6.7713
     7.2178   7.6889

          k = 0.7622 0.0645 0.1485 ( 36509 PWs)   bands (ev):

   -44.1538 -44.1538 -22.2880 -22.2880 -22.2535 -22.2535 -22.0694 -22.0694
    -6.8232  -6.7322  -6.3172  -6.2130  -5.8310  -5.4179  -5.1895  -5.0732
    -4.6273  -4.6131   0.0766   0.3995   0.5529   0.9850   1.1693   1.2152
     1.4541   1.6596   1.7428   2.0183   2.0558   2.6550   2.6647   2.7620
     2.8500   3.1579   3.3402   3.3897   3.4273   3.6624   3.7136   3.9030
     4.0556   4.7579   5.3907   6.2153   6.5382   6.5616   6.7434   6.8916
     6.9496   7.4691

          k = 0.7622 0.0645-0.2971 ( 36472 PWs)   bands (ev):

   -44.1538 -44.1538 -22.2880 -22.2880 -22.2535 -22.2535 -22.0694 -22.0694
    -6.7777  -6.7777  -6.2881  -6.2881  -5.6150  -5.6150  -5.1237  -5.1237
    -4.6152  -4.6152   0.2832   0.2832   0.7028   0.7028   1.0942   1.0942
     1.5703   1.5703   1.9216   1.9216   2.3376   2.3376   2.7879   2.7879
     2.9876   2.9876   3.4756   3.4756   3.5625   3.5625   3.7767   3.7767
     4.2280   4.2280   5.9894   5.9894   6.3618   6.3618   6.7798   6.7798
     7.3175   7.3175

          k = 1.0162 0.1290 0.0000 ( 36514 PWs)   bands (ev):

   -44.1534 -44.1534 -22.2859 -22.2859 -22.2636 -22.2636 -22.0681 -22.0681
    -6.6824  -6.6623  -5.7714  -5.7621  -5.6512  -5.6380  -5.5586  -5.5566
    -4.5845  -4.5667   0.0834   0.1221   0.4335   0.4641   1.0082   1.0278
     1.4746   1.6674   2.2259   2.3218   2.3334   2.3480   2.7973   2.8283
     2.8649   2.9411   3.2258   3.2953   3.2985   3.5038   3.5664   3.6519
     3.8347   3.9278   6.3463   6.3839   6.4372   6.5326   6.9294   6.9872
     6.9896   7.0026

          k = 1.0162 0.1290 0.1485 ( 36524 PWs)   bands (ev):

   -44.1534 -44.1534 -22.2859 -22.2859 -22.2636 -22.2636 -22.0681 -22.0681
    -6.6788  -6.6646  -5.7734  -5.7651  -5.6752  -5.6703  -5.5244  -5.5205
    -4.5880  -4.5754   0.0007   0.0134   0.6530   0.6609   1.0390   1.0588
     1.4678   1.5720   1.9235   1.9754   2.3549   2.3686   2.7112   2.8171
     2.9639   2.9829   3.1582   3.2303   3.5275   3.5867   3.7001   3.7078
     4.1072   4.1363   5.8322   5.8644   6.3723   6.4493   6.8829   6.9144
     7.2187   7.2343

          k = 1.0162 0.1290-0.2971 ( 36516 PWs)   bands (ev):

   -44.1534 -44.1534 -22.2859 -22.2859 -22.2636 -22.2636 -22.0681 -22.0681
    -6.6711  -6.6711  -5.7724  -5.7724  -5.6904  -5.6904  -5.4972  -5.4972
    -4.5879  -4.5879  -0.0519  -0.0519   0.8971   0.8971   1.0657   1.0657
     1.5107   1.5107   1.6026   1.6026   2.3544   2.3544   2.7726   2.7726
     2.9768   2.9768   3.1890   3.1890   3.5915   3.5915   3.7618   3.7618
     4.6235   4.6235   5.2475   5.2475   6.3420   6.3420   6.9159   6.9159
     7.2813   7.2813

          k =-0.7622-0.3224 0.0000 ( 36511 PWs)   bands (ev):

   -44.1538 -44.1538 -22.2880 -22.2880 -22.2535 -22.2535 -22.0694 -22.0694
    -6.8171  -6.7195  -6.3464  -6.1152  -5.9784  -5.2867  -5.2787  -5.0538
    -4.6476  -4.6004   0.0126   0.2710   0.6266   1.1315   1.1790   1.2103
     1.4998   1.6590   1.9323   1.9508   2.3472   2.4489   2.5411   2.7647
     2.7913   3.1636   3.2536   3.3717   3.5982   3.6558   3.7709   3.8159
     3.9607   4.4967   5.7534   6.1510   6.2810   6.6329   6.7160   6.8742
     7.1539   7.6883

          k =-0.7622-0.3224 0.1485 ( 36492 PWs)   bands (ev):

   -44.1538 -44.1538 -22.2880 -22.2880 -22.2535 -22.2535 -22.0694 -22.0694
    -6.8014  -6.7314  -6.3393  -6.2184  -5.8268  -5.4168  -5.1985  -5.0755
    -4.6349  -4.6029   0.0830   0.3835   0.5286   0.9350   1.1624   1.1997
     1.5474   1.6600   1.6909   2.1890   2.2381   2.6363   2.6816   2.8263
     2.8726   3.1757   3.1822   3.3520   3.4786   3.6238   3.6552   3.8570
     3.9274   4.7585   5.3271   6.2560   6.5150   6.5879   6.7139   6.9192
     6.9900   7.4186

          k =-0.7622-0.3224-0.2971 ( 36508 PWs)   bands (ev):

   -44.1538 -44.1538 -22.2880 -22.2880 -22.2535 -22.2535 -22.0694 -22.0694
    -6.7645  -6.7645  -6.3050  -6.3050  -5.6103  -5.6103  -5.1301  -5.1301
    -4.6141  -4.6141   0.2756   0.2756   0.7118   0.7118   1.0383   1.0383
     1.5803   1.5803   2.0336   2.0336   2.4405   2.4405   2.8102   2.8102
     2.9927   2.9927   3.3148   3.3148   3.5710   3.5710   3.7792   3.7792
     4.1697   4.1697   5.9341   5.9341   6.3566   6.3566   6.8736   6.8736
     7.2470   7.2470

          k =-0.5081-0.2579 0.0000 ( 36480 PWs)   bands (ev):

   -44.1547 -44.1547 -22.2929 -22.2929 -22.2293 -22.2293 -22.0725 -22.0724
    -7.1998  -6.8832  -6.6140  -6.5481  -6.3433  -5.2201  -5.1330  -4.7698
    -4.7027  -4.4168   0.5093   0.7351   0.7382   1.2714   1.3227   1.5488
     1.6506   1.8213   1.9458   2.1937   2.2385   2.2949   2.4381   3.2684
     3.3294   3.3391   3.4307   3.4673   3.7372   3.8540   3.9174   4.0775
     4.6487   5.3336   5.3494   5.7657   5.9679   6.6328   6.6676   6.7474
     7.2991   7.5505

          k =-0.5081-0.2579 0.1485 ( 36485 PWs)   bands (ev):

   -44.1547 -44.1547 -22.2929 -22.2929 -22.2293 -22.2293 -22.0725 -22.0724
    -7.1665  -6.9484  -6.6195  -6.6007  -6.1638  -5.5047  -4.9435  -4.7375
    -4.6965  -4.4468   0.5160   0.7567   0.8835   1.0845   1.2963   1.4310
     1.5310   1.6837   2.0518   2.0642   2.3268   2.6172   2.8648   3.2839
     3.3022   3.3443   3.4539   3.4840   3.6310   3.7444   3.8273   4.1393
     4.3659   4.5937   5.9829   6.0524   6.2090   6.6347   6.6624   6.6849
     7.1531   7.4717

          k =-0.5081-0.2579-0.2971 ( 36478 PWs)   bands (ev):

   -44.1547 -44.1547 -22.2929 -22.2929 -22.2293 -22.2293 -22.0725 -22.0725
    -7.0726  -7.0726  -6.6220  -6.6220  -5.8493  -5.8493  -4.8216  -4.8216
    -4.5470  -4.5470   0.6299   0.6299   1.0971   1.0971   1.2352   1.2352
     1.4499   1.4499   2.0592   2.0592   2.8078   2.8078   3.1631   3.1631
     3.3393   3.3393   3.3996   3.3996   3.6965   3.6965   3.8307   3.8307
     4.2395   4.2395   6.1989   6.1989   6.6039   6.6039   6.7409   6.7409
     7.0846   7.0846

          k =-0.2541-0.1934 0.0000 ( 36410 PWs)   bands (ev):

   -44.1556 -44.1556 -22.2977 -22.2976 -22.2052 -22.2052 -22.0756 -22.0755
    -7.5211  -7.0789  -6.8391  -6.7406  -6.5399  -5.2739  -5.1225  -4.8779
    -4.8044  -4.0035   0.5747   0.8844   0.9274   1.1944   1.3039   1.5003
     1.9605   2.1517   2.2218   2.4856   2.5737   3.0662   3.4029   3.5384
     3.5933   3.6881   3.7925   3.7958   3.9634   4.1284   4.1825   4.2307
     4.4007   4.6944   5.7236   6.0139   6.3387   6.5837   6.6027   6.8533
     6.9968   7.0670

          k =-0.2541-0.1934 0.1485 ( 36427 PWs)   bands (ev):

   -44.1556 -44.1556 -22.2976 -22.2976 -22.2052 -22.2052 -22.0755 -22.0755
    -7.4831  -7.2050  -6.7947  -6.7460  -6.3888  -5.6367  -4.9287  -4.8232
    -4.7022  -4.0955   0.5958   0.9085   1.0083   1.0353   1.1578   1.6310
     1.8729   2.3086   2.5019   2.5137   2.5819   2.9128   3.2516   3.3311
     3.5140   3.6432   3.7317   3.8831   3.9704   4.0681   4.1724   4.2258
     4.6814   5.0395   5.7842   5.8250   6.1907   6.3239   6.5640   6.6835
     7.2213   7.2775

          k =-0.2541-0.1934-0.2971 ( 36422 PWs)   bands (ev):

   -44.1556 -44.1556 -22.2976 -22.2976 -22.2052 -22.2052 -22.0755 -22.0755
    -7.3723  -7.3723  -6.7638  -6.7638  -6.0479  -6.0479  -4.8692  -4.8692
    -4.3500  -4.3500   0.7242   0.7242   1.0204   1.0204   1.3124   1.3124
     2.2826   2.2826   2.5783   2.5783   2.7234   2.7234   3.1172   3.1172
     3.5028   3.5028   3.7989   3.7989   4.0125   4.0125   4.2175   4.2175
     5.1944   5.1944   5.6990   5.6990   6.0607   6.0607   6.5631   6.5631
     7.4105   7.4106

          k = 0.0000-0.1290 0.0000 ( 36417 PWs)   bands (ev):

   -44.1560 -44.1560 -22.2996 -22.2996 -22.1951 -22.1951 -22.0768 -22.0767
    -7.6400  -7.1680  -6.9413  -6.7797  -6.5915  -5.3074  -5.1332  -4.9167
    -4.8487  -3.8665   0.4814   0.7163   0.7860   1.0563   1.5099   1.6152
     2.4191   2.5052   2.6127   3.0058   3.0430   3.1235   3.1241   3.4506
     3.4809   3.5770   3.7879   4.0150   4.0943   4.2302   4.2675   4.6242
     5.1640   5.5102   5.5861   5.6053   5.8681   6.0943   6.4649   6.7589
     6.9349   7.2827

          k = 0.0000-0.1290 0.1485 ( 36419 PWs)   bands (ev):

   -44.1560 -44.1560 -22.2996 -22.2996 -22.1951 -22.1951 -22.0768 -22.0767
    -7.6009  -7.3109  -6.8582  -6.7864  -6.4592  -5.6929  -4.9436  -4.8637
    -4.7043  -3.9822   0.5170   0.7543   0.9255   1.0491   1.0820   2.0472
     2.1367   2.4431   2.5792   3.0461   3.0937   3.1027   3.2742   3.3334
     3.6684   3.6839   3.7589   3.9792   4.0464   4.2558   4.2828   4.6424
     4.9381   5.0488   5.7131   5.9174   6.0577   6.0867   6.5737   6.7473
     6.7714   7.2670

          k = 0.0000-0.1290-0.2971 ( 36464 PWs)   bands (ev):

   -44.1560 -44.1560 -22.2996 -22.2996 -22.1951 -22.1951 -22.0768 -22.0768
    -7.4866  -7.4866  -6.8081  -6.8081  -6.1204  -6.1204  -4.9000  -4.9000
    -4.2906  -4.2906   0.7023   0.7023   0.8639   0.8639   1.4674   1.4674
     2.5064   2.5064   2.7117   2.7117   3.0599   3.0599   3.3126   3.3126
     3.7925   3.7925   3.8913   3.8913   4.2319   4.2319   4.4362   4.4362
     4.7257   4.7257   5.9479   5.9479   6.2704   6.2704   6.3813   6.3813
     7.1747   7.1747

          k = 1.0162 0.0000 0.0000 ( 36499 PWs)   bands (ev):

   -44.1534 -44.1534 -22.2859 -22.2859 -22.2636 -22.2636 -22.0681 -22.0681
    -6.6824  -6.6623  -5.7707  -5.7628  -5.6512  -5.6380  -5.5591  -5.5562
    -4.5845  -4.5667   0.0790   0.1266   0.4293   0.4685   1.0057   1.0321
     1.4802   1.6581   2.2310   2.3047   2.3310   2.3513   2.8013   2.8202
     2.9111   2.9229   3.2128   3.2982   3.3088   3.4980   3.5526   3.6683
     3.8162   3.9379   6.3441   6.3873   6.4328   6.5375   6.9414   6.9828
     6.9900   7.0048

          k = 1.0162 0.0000 0.1485 ( 36485 PWs)   bands (ev):

   -44.1534 -44.1534 -22.2859 -22.2859 -22.2636 -22.2636 -22.0681 -22.0681
    -6.6788  -6.6646  -5.7729  -5.7657  -5.6754  -5.6701  -5.5247  -5.5202
    -4.5880  -4.5754  -0.0009   0.0146   0.6521   0.6625   1.0466   1.0523
     1.4724   1.5693   1.9289   1.9648   2.3491   2.3635   2.6961   2.8355
     2.9713   3.0301   3.1146   3.2318   3.5262   3.6360   3.6582   3.6929
     4.1037   4.1455   5.8270   5.8718   6.3698   6.4516   6.8912   6.9120
     7.2253   7.2280

          k = 1.0162 0.0000-0.2971 ( 36514 PWs)   bands (ev):

   -44.1534 -44.1534 -22.2859 -22.2859 -22.2636 -22.2636 -22.0681 -22.0681
    -6.6711  -6.6711  -5.7724  -5.7724  -5.6904  -5.6904  -5.4972  -5.4972
    -4.5879  -4.5879  -0.0520  -0.0520   0.8964   0.8964   1.0682   1.0682
     1.5093   1.5093   1.6041   1.6041   2.3443   2.3443   2.7609   2.7609
     3.0331   3.0331   3.1530   3.1530   3.5988   3.5988   3.7529   3.7529
     4.6238   4.6238   5.2494   5.2494   6.3417   6.3417   6.9183   6.9183
     7.2812   7.2812

          k = 1.2703 0.0645 0.0000 ( 36468 PWs)   bands (ev):

   -44.1538 -44.1538 -22.2881 -22.2880 -22.2535 -22.2535 -22.0694 -22.0694
    -6.8046  -6.7239  -6.3561  -6.1124  -5.9795  -5.2919  -5.2780  -5.0541
    -4.6502  -4.5966   0.0190   0.2599   0.6039   1.1230   1.1899   1.1949
     1.5033   1.7086   1.9230   1.9924   2.4126   2.4544   2.5595   2.7795
     2.8119   3.0851   3.2606   3.4420   3.5488   3.5490   3.7974   3.8302
     3.9323   4.4379   5.7552   6.1525   6.3122   6.5756   6.7552   6.9294
     7.1179   7.7084

          k = 1.2703 0.0645 0.1485 ( 36490 PWs)   bands (ev):

   -44.1538 -44.1538 -22.2880 -22.2880 -22.2535 -22.2535 -22.0694 -22.0694
    -6.7905  -6.7326  -6.3487  -6.2208  -5.8250  -5.4164  -5.2022  -5.0764
    -4.6366  -4.6001   0.0851   0.3785   0.5172   0.9199   1.1564   1.2001
     1.6023   1.6513   1.6620   2.2661   2.3160   2.6352   2.6873   2.8440
     2.8802   3.0971   3.2240   3.3589   3.4272   3.5848   3.7137   3.8192
     3.8512   4.7575   5.3027   6.2782   6.4840   6.5962   6.7162   6.9501
     7.0039   7.3916

          k = 1.2703 0.0645-0.2971 ( 36480 PWs)   bands (ev):

   -44.1538 -44.1538 -22.2880 -22.2880 -22.2535 -22.2535 -22.0694 -22.0694
    -6.7588  -6.7588  -6.3123  -6.3123  -5.6083  -5.6083  -5.1327  -5.1327
    -4.6137  -4.6137   0.2721   0.2721   0.7155   0.7155   1.0211   1.0211
     1.5834   1.5834   2.0664   2.0664   2.5006   2.5006   2.8376   2.8376
     2.9847   2.9847   3.2391   3.2391   3.5804   3.5804   3.7650   3.7650
     4.1477   4.1477   5.9130   5.9130   6.3533   6.3533   6.9265   6.9265
     7.2062   7.2062

          k =-0.5081-0.3869 0.0000 ( 36463 PWs)   bands (ev):

   -44.1547 -44.1547 -22.2929 -22.2929 -22.2293 -22.2293 -22.0725 -22.0724
    -7.1826  -6.8789  -6.6311  -6.5450  -6.3565  -5.2178  -5.1420  -4.7733
    -4.6964  -4.4178   0.5172   0.7235   0.7265   1.3320   1.4100   1.5912
     1.6370   1.8338   1.9112   2.2357   2.2686   2.3018   2.4402   3.2050
     3.3162   3.3478   3.3591   3.4753   3.7014   3.7658   3.8957   4.0640
     4.6378   5.3120   5.3402   5.6898   6.0259   6.6624   6.7453   6.7828
     7.2110   7.5553

          k =-0.5081-0.3869 0.1485 ( 36477 PWs)   bands (ev):

   -44.1547 -44.1547 -22.2929 -22.2929 -22.2293 -22.2293 -22.0725 -22.0724
    -7.1494  -6.9370  -6.6369  -6.6158  -6.1656  -5.5025  -4.9570  -4.7366
    -4.6927  -4.4449   0.5228   0.7592   0.8698   1.0808   1.4050   1.4368
     1.5807   1.6878   2.0646   2.0719   2.3190   2.6656   2.8843   3.1768
     3.3178   3.3419   3.3806   3.4873   3.6354   3.7182   3.7753   4.1037
     4.3018   4.5894   5.9288   6.0594   6.2061   6.5689   6.7648   6.8012
     7.0734   7.4772

          k =-0.5081-0.3869-0.2971 ( 36492 PWs)   bands (ev):

   -44.1547 -44.1547 -22.2929 -22.2929 -22.2293 -22.2293 -22.0725 -22.0725
    -7.0565  -7.0565  -6.6418  -6.6418  -5.8471  -5.8471  -4.8312  -4.8312
    -4.5412  -4.5412   0.6394   0.6394   1.0937   1.0937   1.2214   1.2214
     1.5454   1.5454   2.0544   2.0544   2.8342   2.8342   3.2074   3.2074
     3.2733   3.2733   3.3600   3.3600   3.6727   3.6727   3.8201   3.8201
     4.1755   4.1755   6.1609   6.1609   6.6317   6.6317   6.7526   6.7526
     7.0945   7.0945

          k =-0.2541-0.3224 0.0000 ( 36485 PWs)   bands (ev):

   -44.1556 -44.1556 -22.2977 -22.2976 -22.2052 -22.2052 -22.0756 -22.0755
    -7.5043  -7.0641  -6.8360  -6.7601  -6.5659  -5.2718  -5.1333  -4.8831
    -4.7960  -4.0050   0.6018   0.9417   1.0124   1.2437   1.3761   1.4984
     1.9947   2.1831   2.2239   2.4028   2.5180   3.1854   3.2537   3.3534
     3.5397   3.6887   3.7579   3.8218   3.9449   4.0619   4.1365   4.1899
     4.3951   4.6288   5.8012   6.0281   6.3746   6.5341   6.6879   6.8814
     6.9458   7.0065

          k =-0.2541-0.3224 0.1485 ( 36445 PWs)   bands (ev):

   -44.1556 -44.1556 -22.2977 -22.2976 -22.2052 -22.2052 -22.0755 -22.0755
    -7.4662  -7.1881  -6.8096  -6.7661  -6.3981  -5.6348  -4.9501  -4.8200
    -4.6935  -4.0952   0.6156   0.9557   1.0626   1.1265   1.2306   1.6563
     1.8799   2.3023   2.4206   2.5081   2.5911   2.9027   3.2708   3.3282
     3.3460   3.5126   3.7594   3.8800   3.9253   4.0621   4.0914   4.1502
     4.6839   5.0039   5.7685   5.8476   6.1793   6.3096   6.6670   6.7224
     7.1659   7.2685

          k =-0.2541-0.3224-0.2971 ( 36442 PWs)   bands (ev):

   -44.1556 -44.1556 -22.2976 -22.2976 -22.2052 -22.2052 -22.0755 -22.0755
    -7.3553  -7.3553  -6.7849  -6.7849  -6.0479  -6.0479  -4.8782  -4.8782
    -4.3457  -4.3457   0.7347   0.7347   1.1524   1.1524   1.3267   1.3267
     2.2758   2.2758   2.5137   2.5137   2.7361   2.7361   3.1741   3.1741
     3.3291   3.3291   3.7926   3.7926   4.0064   4.0064   4.1363   4.1363
     5.1898   5.1898   5.6576   5.6576   6.0317   6.0317   6.6710   6.6710
     7.3761   7.3762

          k = 0.0000-0.2579 0.0000 ( 36445 PWs)   bands (ev):

   -44.1560 -44.1560 -22.2996 -22.2996 -22.1951 -22.1951 -22.0768 -22.0767
    -7.6251  -7.1519  -6.9385  -6.7988  -6.6175  -5.3060  -5.1430  -4.9243
    -4.8388  -3.8681   0.5290   0.8003   0.8328   1.0963   1.5644   1.6391
     2.4282   2.5031   2.6304   3.0307   3.0394   3.1187   3.2241   3.2471
     3.2602   3.5509   3.7363   3.9888   4.0898   4.0942   4.1432   4.6276
     5.1459   5.4416   5.6226   5.6533   5.9007   6.1556   6.5643   6.6748
     6.9366   7.2441

          k = 0.0000-0.2579 0.1485 ( 36452 PWs)   bands (ev):

   -44.1560 -44.1560 -22.2996 -22.2996 -22.1951 -22.1951 -22.0768 -22.0767
    -7.5860  -7.2953  -6.8689  -6.8053  -6.4711  -5.6915  -4.9654  -4.8592
    -4.6961  -3.9821   0.5532   0.8625   0.9840   1.0798   1.1109   2.0702
     2.1703   2.4530   2.5952   3.0343   3.0859   3.0983   3.1724   3.1966
     3.6405   3.6630   3.6765   3.9267   4.0424   4.1349   4.1718   4.6457
     4.9322   5.0286   5.7390   5.9246   6.0807   6.1013   6.5390   6.7737
     6.8223   7.2297

          k = 0.0000-0.2579-0.2971 ( 36454 PWs)   bands (ev):

   -44.1560 -44.1560 -22.2996 -22.2996 -22.1951 -22.1951 -22.0768 -22.0768
    -7.4715  -7.4715  -6.8268  -6.8268  -6.1216  -6.1216  -4.9080  -4.9080
    -4.2870  -4.2870   0.7364   0.7364   0.9523   0.9523   1.4915   1.4915
     2.5188   2.5188   2.7288   2.7288   3.0495   3.0495   3.1638   3.1638
     3.7682   3.7682   3.8786   3.8786   4.0939   4.0939   4.4295   4.4295
     4.7270   4.7270   5.9172   5.9172   6.3092   6.3092   6.3849   6.3849
     7.1655   7.1655

          k = 1.5243 0.0000 0.0000 ( 36439 PWs)   bands (ev):

   -44.1547 -44.1547 -22.2929 -22.2929 -22.2293 -22.2293 -22.0725 -22.0724
    -7.1749  -6.8778  -6.6377  -6.5437  -6.3622  -5.2169  -5.1458  -4.7742
    -4.6943  -4.4182   0.5215   0.7176   0.7204   1.3355   1.5382   1.5542
     1.6196   1.8375   1.9073   2.2621   2.2648   2.2924   2.4530   3.1520
     3.2911   3.3304   3.3725   3.5472   3.6605   3.6896   3.8902   4.0778
     4.6328   5.2977   5.3369   5.6614   6.0523   6.6262   6.8117   6.8196
     7.1648   7.5841

          k = 1.5243 0.0000 0.1485 ( 36476 PWs)   bands (ev):

   -44.1547 -44.1547 -22.2929 -22.2929 -22.2293 -22.2293 -22.0725 -22.0724
    -7.1418  -6.9322  -6.6434  -6.6233  -6.1663  -5.5016  -4.9624  -4.7366
    -4.6910  -4.4441   0.5261   0.7585   0.8641   1.0793   1.4268   1.5026
     1.5554   1.7021   2.0743   2.0771   2.3100   2.6790   2.8972   3.1236
     3.2762   3.3555   3.3682   3.5749   3.5818   3.7012   3.7399   4.1140
     4.2617   4.5879   5.9031   6.0661   6.2054   6.5407   6.8102   6.8627
     7.0251   7.4883

          k = 1.5243 0.0000-0.2971 ( 36508 PWs)   bands (ev):

   -44.1547 -44.1547 -22.2929 -22.2929 -22.2293 -22.2293 -22.0725 -22.0725
    -7.0494  -7.0494  -6.6504  -6.6504  -5.8461  -5.8461  -4.8351  -4.8351
    -4.5388  -4.5388   0.6432   0.6432   1.0919   1.0919   1.2167   1.2167
     1.5908   1.5908   2.0495   2.0495   2.8456   2.8456   3.1612   3.1612
     3.2951   3.2951   3.3655   3.3655   3.6524   3.6524   3.8171   3.8171
     4.1489   4.1489   6.1455   6.1455   6.6264   6.6264   6.7708   6.7708
     7.1031   7.1031

          k =-0.2541-0.4514 0.0000 ( 36444 PWs)   bands (ev):

   -44.1556 -44.1556 -22.2977 -22.2976 -22.2052 -22.2052 -22.0756 -22.0755
    -7.4916  -7.0539  -6.8338  -6.7722  -6.5863  -5.2704  -5.1412  -4.8847
    -4.7920  -4.0060   0.6099   0.9526   1.1234   1.2834   1.4657   1.4952
     2.0332   2.2085   2.2130   2.3081   2.4398   3.1469   3.2296   3.2934
     3.5404   3.6949   3.7425   3.7532   3.9486   4.0112   4.1060   4.1639
     4.4547   4.5434   5.8653   6.0351   6.3916   6.4928   6.7401   6.8776
     6.9041   6.9972

          k =-0.2541-0.4514 0.1485 ( 36461 PWs)   bands (ev):

   -44.1556 -44.1556 -22.2977 -22.2976 -22.2052 -22.2052 -22.0755 -22.0755
    -7.4535  -7.1754  -6.8217  -6.7804  -6.4044  -5.6334  -4.9636  -4.8190
    -4.6877  -4.0949   0.6201   0.9733   1.0754   1.2620   1.3112   1.6774
     1.8947   2.2760   2.3240   2.4730   2.6046   2.8905   3.2152   3.2288
     3.3658   3.5165   3.7859   3.8327   3.9037   4.0016   4.0752   4.1118
     4.7010   4.9711   5.7603   5.8666   6.1899   6.2598   6.7342   6.7498
     7.1338   7.2622

          k =-0.2541-0.4514-0.2971 ( 36490 PWs)   bands (ev):

   -44.1556 -44.1556 -22.2976 -22.2976 -22.2052 -22.2052 -22.0755 -22.0755
    -7.3424  -7.3424  -6.8008  -6.8008  -6.0477  -6.0477  -4.8845  -4.8845
    -4.3426  -4.3426   0.7358   0.7358   1.2729   1.2729   1.3452   1.3452
     2.2529   2.2529   2.4493   2.4493   2.7425   2.7425   3.1923   3.1923
     3.2427   3.2427   3.7867   3.7867   4.0026   4.0026   4.0850   4.0850
     5.1884   5.1884   5.6340   5.6340   6.0054   6.0054   6.7359   6.7359
     7.3535   7.3535

          k = 0.0000-0.3869 0.0000 ( 36477 PWs)   bands (ev):

   -44.1560 -44.1560 -22.2996 -22.2996 -22.1951 -22.1951 -22.0768 -22.0767
    -7.6094  -7.1355  -6.9357  -6.8158  -6.6468  -5.3045  -5.1534  -4.9275
    -4.8326  -3.8696   0.5529   0.8152   0.9926   1.1622   1.6296   1.6614
     2.4377   2.4906   2.6495   2.9554   3.0174   3.0274   3.0921   3.1140
     3.3624   3.5243   3.7629   3.9081   3.9730   4.0083   4.0938   4.6312
     5.1283   5.4032   5.6400   5.7307   5.9353   6.1906   6.5712   6.6355
     6.9382   7.2121

          k = 0.0000-0.3869 0.1485 ( 36452 PWs)   bands (ev):

   -44.1560 -44.1560 -22.2996 -22.2996 -22.1951 -22.1951 -22.0768 -22.0767
    -7.5702  -7.2787  -6.8821  -6.8237  -6.4828  -5.6901  -4.9841  -4.8571
    -4.6886  -3.9820   0.5658   0.9782   1.0377   1.1304   1.1988   2.0969
     2.1974   2.4633   2.6122   2.8887   2.9226   3.0217   3.0776   3.2843
     3.6183   3.6420   3.6778   3.9083   4.0057   4.0382   4.0596   4.6492
     4.9263   5.0191   5.7743   5.9325   6.0891   6.1011   6.4977   6.7759
     6.8719   7.1929

          k = 0.0000-0.3869-0.2971 ( 36454 PWs)   bands (ev):

   -44.1560 -44.1560 -22.2996 -22.2996 -22.1951 -22.1951 -22.0768 -22.0768
    -7.4553  -7.4553  -6.8466  -6.8466  -6.1225  -6.1225  -4.9160  -4.9160
    -4.2834  -4.2834   0.7385   0.7385   1.1028   1.1028   1.5179   1.5179
     2.5319   2.5319   2.6877   2.6877   3.0064   3.0064   3.0385   3.0385
     3.7797   3.7797   3.8658   3.8658   3.9864   3.9864   4.4166   4.4166
     4.7284   4.7284   5.8848   5.8848   6.3328   6.3328   6.3889   6.3889
     7.1398   7.1398

          k =-2.0325 0.0000 0.0000 ( 36452 PWs)   bands (ev):

   -44.1560 -44.1560 -22.2996 -22.2996 -22.1951 -22.1951 -22.0768 -22.0767
    -7.6026  -7.1287  -6.9346  -6.8218  -6.6603  -5.3039  -5.1579  -4.9280
    -4.8308  -3.8703   0.5565   0.8215   1.1007   1.1672   1.6702   1.6709
     2.4417   2.4786   2.6579   2.8101   2.9331   3.0116   3.1120   3.1211
     3.4563   3.5130   3.7892   3.7960   3.9469   3.9608   4.0936   4.6328
     5.1212   5.3922   5.6473   5.7673   5.9510   6.2009   6.5208   6.6590
     6.9388   7.2000

          k =-2.0325 0.0000 0.1485 ( 36456 PWs)   bands (ev):

   -44.1560 -44.1560 -22.2996 -22.2996 -22.1951 -22.1951 -22.0768 -22.0767
    -7.5633  -7.2715  -6.8884  -6.8313  -6.4875  -5.6895  -4.9913  -4.8566
    -4.6856  -3.9820   0.5659   1.0206   1.0488   1.1705   1.2650   2.1083
     2.2070   2.4677   2.6196   2.7601   2.8193   3.0162   3.0741   3.3464
     3.5976   3.6332   3.7003   3.8798   3.9572   4.0187   4.0364   4.6508
     4.9239   5.0172   5.7931   5.9359   6.0754   6.1092   6.4797   6.7768
     6.8861   7.1788

          k =-2.0325 0.0000-0.2971 ( 36460 PWs)   bands (ev):

   -44.1560 -44.1560 -22.2996 -22.2996 -22.1951 -22.1951 -22.0768 -22.0768
    -7.4483  -7.4483  -6.8552  -6.8552  -6.1229  -6.1229  -4.9193  -4.9193
    -4.2819  -4.2819   0.7359   0.7359   1.1826   1.1826   1.5306   1.5306
     2.5376   2.5376   2.6204   2.6204   2.9746   2.9746   3.0337   3.0337
     3.7829   3.7829   3.8605   3.8605   3.9505   3.9505   4.4117   4.4117
     4.7291   4.7291   5.8701   5.8701   6.3397   6.3397   6.3907   6.3907
     7.1270   7.1270

     the Fermi energy is     5.3052 ev

!    total energy              =   -4240.93643384 Ry

     total all-electron energy =   -150287.630129 Ry
     estimated scf accuracy    <          5.8E-11 Ry
     smearing contrib. (-TS)   =       0.00000701 Ry
     internal energy E=F+TS    =   -4240.93644085 Ry

     The total energy is F=E-TS. E is the sum of the following terms:
     one-electron contribution =    -164.88328839 Ry
     hartree contribution      =     115.90842275 Ry
     xc contribution           =    -201.41439624 Ry
     ewald contribution        =    -223.03810636 Ry
     one-center paw contrib.   =   -3767.50907261 Ry

     convergence has been achieved in  18 iterations

     Forces acting on atoms (cartesian axes, Ry/au):

     atom    1 type  1   force =     0.00000000   -0.02122194    0.00000000
     atom    2 type  1   force =     0.00000000    0.02122194    0.00000000
     atom    3 type  2   force =     0.00000000    0.00199870    0.00000000
     atom    4 type  2   force =     0.00000000   -0.00199870    0.00000000
     atom    5 type  2   force =    -0.00000000    0.00464507    0.00012249
     atom    6 type  2   force =     0.00000000   -0.00464507   -0.00012249
     atom    7 type  2   force =     0.00000000    0.00464507   -0.00012249
     atom    8 type  2   force =     0.00000000   -0.00464507    0.00012249
     atom    9 type  2   force =     0.00000000    0.01877444    0.01459825
     atom   10 type  2   force =     0.00000000   -0.01877444   -0.01459825
     atom   11 type  2   force =     0.00000000    0.01877444   -0.01459825
     atom   12 type  2   force =     0.00000000   -0.01877444    0.01459825

     Total force =     0.057074     Total SCF correction =     0.000011


     Computing stress (Cartesian axis) and pressure

          total   stress  (Ry/bohr**3)                   (kbar)     P=       -4.73
  -0.00001798   0.00000000   0.00000000           -2.65        0.00        0.00
  -0.00000000  -0.00003062   0.00000000           -0.00       -4.51        0.00
   0.00000000   0.00000000  -0.00004784            0.00        0.00       -7.04

 
     init_run     :     18.65s CPU     19.14s WALL (       1 calls)
     electrons    :    977.29s CPU    988.58s WALL (       1 calls)
     forces       :      6.90s CPU      7.20s WALL (       1 calls)
     stress       :     43.07s CPU     43.68s WALL (       1 calls)

     Called by init_run:
     wfcinit      :     14.18s CPU     14.35s WALL (       1 calls)
     potinit      :      1.37s CPU      1.43s WALL (       1 calls)
     hinit0       :      1.77s CPU      1.82s WALL (       1 calls)

     Called by electrons:
     c_bands      :    818.18s CPU    821.69s WALL (      19 calls)
     sum_band     :    132.81s CPU    137.03s WALL (      19 calls)
     v_of_rho     :      5.74s CPU      6.02s WALL (      19 calls)
     newd         :     14.47s CPU     17.91s WALL (      19 calls)
     PAW_pot      :      6.08s CPU      6.09s WALL (      19 calls)
     mix_rho      :      0.88s CPU      0.91s WALL (      19 calls)

     Called by c_bands:
     init_us_2    :     11.58s CPU     11.63s WALL (    2583 calls)
     cegterg      :    740.00s CPU    742.99s WALL (    1197 calls)

     Called by *egterg:
     cdiaghg      :     28.90s CPU     28.98s WALL (    8591 calls)
     h_psi        :    565.45s CPU    568.24s WALL (    8717 calls)
     s_psi        :     47.61s CPU     47.68s WALL (    8717 calls)
     g_psi        :      2.06s CPU      2.08s WALL (    7457 calls)

     Called by h_psi:
     h_psi:calbec :     40.61s CPU     40.67s WALL (    8717 calls)
     vloc_psi     :    474.06s CPU    476.63s WALL (    8717 calls)
     add_vuspsi   :     47.57s CPU     47.65s WALL (    8717 calls)

     General routines
     calbec       :     52.88s CPU     52.97s WALL (   10229 calls)
     fft          :      3.44s CPU      3.57s WALL (     271 calls)
     ffts         :      0.09s CPU      0.09s WALL (      38 calls)
     fftw         :    431.23s CPU    433.54s WALL (  445356 calls)
     interpolate  :      0.32s CPU      0.32s WALL (      19 calls)
 
     Parallel routines
 
     PWSCF        :  17m26.17s CPU  17m39.10s WALL

 
   This run was terminated on:  15:37: 4  19Nov2021            

=------------------------------------------------------------------------------=
   JOB DONE.
=------------------------------------------------------------------------------=
