
     Program PWSCF v.6.8 starts on 19Nov2021 at 15:19:38 

     This program is part of the open-source Quantum ESPRESSO suite
     for quantum simulation of materials; please cite
         "P. Giannozzi et al., J. Phys.:Condens. Matter 21 395502 (2009);
         "P. Giannozzi et al., J. Phys.:Condens. Matter 29 465901 (2017);
         "P. Giannozzi et al., J. Chem. Phys. 152 154105 (2020);
          URL http://www.quantum-espresso.org", 
     in publications or presentations arising from this work. More details at
     http://www.quantum-espresso.org/quote

     Parallel version (MPI), running on    10 processors

     MPI processes distributed on     1 nodes
     R & G space division:  proc/nbgrp/npool/nimage =      10
     68435 MiB available memory on the printing compute node when the environment starts
 
     Waiting for input...
     Reading input from standard input

     Current dimensions of program PWSCF are:
     Max number of different atomic species (ntypx) = 10
     Max number of k-points (npk) =  40000
     Max angular momentum in pseudopotentials (lmaxx) =  4
     file Zr.pbe-spn-kjpaw_psl.1.0.0.UPF: wavefunction(s)  4S 4P renormalized
     file Te.pbe-n-kjpaw_psl.1.0.0.UPF: wavefunction(s)  5S 5P renormalized
     Message from routine setup:
     using ibrav=0 with symmetry is DISCOURAGED, use correct ibrav instead

     Subspace diagonalization in iterative solution of the eigenvalue problem:
     a serial algorithm will be used

 
     Parallelization info
     --------------------
     sticks:   dense  smooth     PW     G-vecs:    dense   smooth      PW
     Min         734     293     87               115340    29174    4753
     Max         735     295     88               115345    29176    4760
     Sum        7345    2937    873              1153415   291749   47557
 
     Using Slab Decomposition
 


     bravais-lattice index     =            0
     lattice parameter (alat)  =      15.5510  a.u.
     unit-cell volume          =    3018.5011 (a.u.)^3
     number of atoms/cell      =           12
     number of atomic types    =            2
     number of electrons       =        84.00
     number of Kohn-Sham states=           50
     kinetic-energy cutoff     =      80.0000  Ry
     charge density cutoff     =     800.0000  Ry
     scf convergence threshold =      1.0E-10
     mixing beta               =       0.7000
     number of iterations used =            8  plain     mixing
     Exchange-correlation= SLA  PW   PBX  PBC
                           (   1   4   3   4   0   0   0)

     celldm(1)=  15.551040  celldm(2)=   0.000000  celldm(3)=   0.000000
     celldm(4)=   0.000000  celldm(5)=   0.000000  celldm(6)=   0.000000

     crystal axes: (cart. coord. in units of alat)
               a(1) = (   0.246007  -0.969268   0.000000 )  
               a(2) = (   0.246007   0.969268   0.000000 )  
               a(3) = (   0.000000   0.000000   1.683031 )  

     reciprocal axes: (cart. coord. in units 2 pi/alat)
               b(1) = (  2.032465 -0.515853  0.000000 )  
               b(2) = (  2.032465  0.515853  0.000000 )  
               b(3) = (  0.000000  0.000000  0.594166 )  


     PseudoPot. # 1 for Zr read from file:
     pseudo/Zr.pbe-spn-kjpaw_psl.1.0.0.UPF
     MD5 check sum: 02112c41713a0468aff2bb39ef194e36
     Pseudo is Projector augmented-wave + core cor, Zval = 12.0
     Generated using &quot;atomic&quot; code by A. Dal Corso  v.6.2.2
     Shape of augmentation charge: PSQ
     Using radial grid of 1225 points,  6 beta functions with: 
                l(1) =   0
                l(2) =   0
                l(3) =   1
                l(4) =   1
                l(5) =   2
                l(6) =   2
     Q(r) pseudized with 0 coefficients 


     PseudoPot. # 2 for Te read from file:
     pseudo/Te.pbe-n-kjpaw_psl.1.0.0.UPF
     MD5 check sum: 66247bff2bd9dbf220fbb0bf5ab56e9d
     Pseudo is Projector augmented-wave + core cor, Zval =  6.0
     Generated using &quot;atomic&quot; code by A. Dal Corso  v.6.3
     Shape of augmentation charge: PSQ
     Using radial grid of 1245 points,  6 beta functions with: 
                l(1) =   0
                l(2) =   0
                l(3) =   1
                l(4) =   1
                l(5) =   2
                l(6) =   2
     Q(r) pseudized with 0 coefficients 


     atomic species   valence    mass     pseudopotential
        Zr            12.00    91.22000     Zr( 1.00)
        Te             6.00   127.60000     Te( 1.00)

      8 Sym. Ops., with inversion, found ( 4 have fractional translation)



   Cartesian axes

     site n.     atom                  positions (alat units)
         1           Zr  tau(   1) = (   0.0000000   0.6122592   0.4207578  )
         2           Zr  tau(   2) = (   0.2460067   0.3570089   1.2622733  )
         3           Te  tau(   3) = (   0.2460067   0.3343821   0.4207578  )
         4           Te  tau(   4) = (   0.0000000   0.6348861   1.2622733  )
         5           Te  tau(   5) = (   0.2460067   0.8067979   0.2499965  )
         6           Te  tau(   6) = (   0.0000000   0.1624702   1.4330345  )
         7           Te  tau(   7) = (   0.2460067   0.8067979   0.5915190  )
         8           Te  tau(   8) = (   0.0000000   0.1624702   1.0915121  )
         9           Te  tau(   9) = (   0.0000000   0.4032390   0.7197648  )
        10           Te  tau(  10) = (   0.2460067   0.5660291   0.9632663  )
        11           Te  tau(  11) = (   0.0000000   0.4032390   0.1217508  )
        12           Te  tau(  12) = (   0.2460067   0.5660291   1.5612803  )

     number of k points=    63  Methfessel-Paxton smearing, width (Ry)=  0.0030
                       cart. coord. in units 2pi/alat
        k(    1) = (   0.0000000   0.0000000   0.0000000), wk =   0.0078125
        k(    2) = (   0.0000000   0.0000000   0.1485415), wk =   0.0156250
        k(    3) = (   0.0000000   0.0000000  -0.2970830), wk =   0.0078125
        k(    4) = (   0.2540581   0.0644816   0.0000000), wk =   0.0312500
        k(    5) = (   0.2540581   0.0644816   0.1485415), wk =   0.0625000
        k(    6) = (   0.2540581   0.0644816  -0.2970830), wk =   0.0312500
        k(    7) = (   0.5081162   0.1289633   0.0000000), wk =   0.0312500
        k(    8) = (   0.5081162   0.1289633   0.1485415), wk =   0.0625000
        k(    9) = (   0.5081162   0.1289633  -0.2970830), wk =   0.0312500
        k(   10) = (   0.7621743   0.1934449   0.0000000), wk =   0.0312500
        k(   11) = (   0.7621743   0.1934449   0.1485415), wk =   0.0625000
        k(   12) = (   0.7621743   0.1934449  -0.2970830), wk =   0.0312500
        k(   13) = (  -1.0162324  -0.2579266   0.0000000), wk =   0.0156250
        k(   14) = (  -1.0162324  -0.2579266   0.1485415), wk =   0.0312500
        k(   15) = (  -1.0162324  -0.2579266  -0.2970830), wk =   0.0156250
        k(   16) = (   0.5081162   0.0000000   0.0000000), wk =   0.0156250
        k(   17) = (   0.5081162   0.0000000   0.1485415), wk =   0.0312500
        k(   18) = (   0.5081162   0.0000000  -0.2970830), wk =   0.0156250
        k(   19) = (   0.7621743   0.0644816   0.0000000), wk =   0.0312500
        k(   20) = (   0.7621743   0.0644816   0.1485415), wk =   0.0625000
        k(   21) = (   0.7621743   0.0644816  -0.2970830), wk =   0.0312500
        k(   22) = (   1.0162324   0.1289633   0.0000000), wk =   0.0312500
        k(   23) = (   1.0162324   0.1289633   0.1485415), wk =   0.0625000
        k(   24) = (   1.0162324   0.1289633  -0.2970830), wk =   0.0312500
        k(   25) = (  -0.7621743  -0.3224082   0.0000000), wk =   0.0312500
        k(   26) = (  -0.7621743  -0.3224082   0.1485415), wk =   0.0625000
        k(   27) = (  -0.7621743  -0.3224082  -0.2970830), wk =   0.0312500
        k(   28) = (  -0.5081162  -0.2579266   0.0000000), wk =   0.0312500
        k(   29) = (  -0.5081162  -0.2579266   0.1485415), wk =   0.0625000
        k(   30) = (  -0.5081162  -0.2579266  -0.2970830), wk =   0.0312500
        k(   31) = (  -0.2540581  -0.1934449   0.0000000), wk =   0.0312500
        k(   32) = (  -0.2540581  -0.1934449   0.1485415), wk =   0.0625000
        k(   33) = (  -0.2540581  -0.1934449  -0.2970830), wk =   0.0312500
        k(   34) = (   0.0000000  -0.1289633   0.0000000), wk =   0.0156250
        k(   35) = (   0.0000000  -0.1289633   0.1485415), wk =   0.0312500
        k(   36) = (   0.0000000  -0.1289633  -0.2970830), wk =   0.0156250
        k(   37) = (   1.0162324   0.0000000   0.0000000), wk =   0.0156250
        k(   38) = (   1.0162324   0.0000000   0.1485415), wk =   0.0312500
        k(   39) = (   1.0162324   0.0000000  -0.2970830), wk =   0.0156250
        k(   40) = (   1.2702905   0.0644816   0.0000000), wk =   0.0312500
        k(   41) = (   1.2702905   0.0644816   0.1485415), wk =   0.0625000
        k(   42) = (   1.2702905   0.0644816  -0.2970830), wk =   0.0312500
        k(   43) = (  -0.5081162  -0.3868899   0.0000000), wk =   0.0312500
        k(   44) = (  -0.5081162  -0.3868899   0.1485415), wk =   0.0625000
        k(   45) = (  -0.5081162  -0.3868899  -0.2970830), wk =   0.0312500
        k(   46) = (  -0.2540581  -0.3224082   0.0000000), wk =   0.0312500
        k(   47) = (  -0.2540581  -0.3224082   0.1485415), wk =   0.0625000
        k(   48) = (  -0.2540581  -0.3224082  -0.2970830), wk =   0.0312500
        k(   49) = (   0.0000000  -0.2579266   0.0000000), wk =   0.0156250
        k(   50) = (   0.0000000  -0.2579266   0.1485415), wk =   0.0312500
        k(   51) = (   0.0000000  -0.2579266  -0.2970830), wk =   0.0156250
        k(   52) = (   1.5243485   0.0000000   0.0000000), wk =   0.0156250
        k(   53) = (   1.5243485   0.0000000   0.1485415), wk =   0.0312500
        k(   54) = (   1.5243485   0.0000000  -0.2970830), wk =   0.0156250
        k(   55) = (  -0.2540581  -0.4513715   0.0000000), wk =   0.0312500
        k(   56) = (  -0.2540581  -0.4513715   0.1485415), wk =   0.0625000
        k(   57) = (  -0.2540581  -0.4513715  -0.2970830), wk =   0.0312500
        k(   58) = (   0.0000000  -0.3868899   0.0000000), wk =   0.0156250
        k(   59) = (   0.0000000  -0.3868899   0.1485415), wk =   0.0312500
        k(   60) = (   0.0000000  -0.3868899  -0.2970830), wk =   0.0156250
        k(   61) = (  -2.0324647   0.0000000   0.0000000), wk =   0.0078125
        k(   62) = (  -2.0324647   0.0000000   0.1485415), wk =   0.0156250
        k(   63) = (  -2.0324647   0.0000000  -0.2970830), wk =   0.0078125

     Dense  grid:  1153415 G-vectors     FFT dimensions: ( 144, 144, 240)

     Smooth grid:   291749 G-vectors     FFT dimensions: (  90,  90, 150)

     Estimated max dynamical RAM per process >     657.19 MB

     Estimated total dynamical RAM >       6.42 GB

     Initial potential from superposition of free atoms

     starting charge   83.99353, renormalised to   84.00000
     Starting wfcs are   66 randomized atomic wfcs
     Checking if some PAW data can be deallocated... 

     total cpu time spent up to now is       20.8 secs

     Self-consistent Calculation

     iteration #  1     ecut=    80.00 Ry     beta= 0.70
     Davidson diagonalization with overlap
     ethr =  1.00E-02,  avg # of iterations =  2.0

     Threshold (ethr) on eigenvalues was too large:
     Diagonalizing with lowered threshold

     Davidson diagonalization with overlap
     ethr =  3.72E-04,  avg # of iterations =  4.1

     total cpu time spent up to now is       99.6 secs

     total energy              =   -4240.71330540 Ry
     estimated scf accuracy    <       0.42471359 Ry

     iteration #  2     ecut=    80.00 Ry     beta= 0.70
     Davidson diagonalization with overlap
     ethr =  5.06E-04,  avg # of iterations =  7.4

     total cpu time spent up to now is      151.6 secs

     total energy              =   -4240.62046083 Ry
     estimated scf accuracy    <       2.17161226 Ry

     iteration #  3     ecut=    80.00 Ry     beta= 0.70
     Davidson diagonalization with overlap
     ethr =  5.06E-04,  avg # of iterations =  5.0

     total cpu time spent up to now is      195.7 secs

     total energy              =   -4240.90907476 Ry
     estimated scf accuracy    <       0.02321104 Ry

     iteration #  4     ecut=    80.00 Ry     beta= 0.70
     Davidson diagonalization with overlap
     c_bands:  2 eigenvalues not converged
     c_bands:  1 eigenvalues not converged
     c_bands:  1 eigenvalues not converged
     c_bands:  1 eigenvalues not converged
     c_bands:  1 eigenvalues not converged
     c_bands:  1 eigenvalues not converged
     c_bands:  1 eigenvalues not converged
     c_bands:  1 eigenvalues not converged
     c_bands:  1 eigenvalues not converged
     c_bands:  2 eigenvalues not converged
     ethr =  2.76E-05,  avg # of iterations = 15.7

     total cpu time spent up to now is      271.3 secs

     total energy              =   -4240.92953175 Ry
     estimated scf accuracy    <       0.10929345 Ry

     iteration #  5     ecut=    80.00 Ry     beta= 0.70
     Davidson diagonalization with overlap
     ethr =  2.76E-05,  avg # of iterations =  5.0

     total cpu time spent up to now is      313.0 secs

     total energy              =   -4240.93130018 Ry
     estimated scf accuracy    <       0.02592475 Ry

     iteration #  6     ecut=    80.00 Ry     beta= 0.70
     Davidson diagonalization with overlap
     ethr =  2.76E-05,  avg # of iterations =  2.8

     total cpu time spent up to now is      352.5 secs

     total energy              =   -4240.93271545 Ry
     estimated scf accuracy    <       0.00328197 Ry

     iteration #  7     ecut=    80.00 Ry     beta= 0.70
     Davidson diagonalization with overlap
     c_bands:  2 eigenvalues not converged
     c_bands:  1 eigenvalues not converged
     c_bands:  1 eigenvalues not converged
     c_bands:  1 eigenvalues not converged
     c_bands:  1 eigenvalues not converged
     c_bands:  1 eigenvalues not converged
     ethr =  3.91E-06,  avg # of iterations = 13.8

     total cpu time spent up to now is      423.6 secs

     total energy              =   -4240.93458821 Ry
     estimated scf accuracy    <       0.00284191 Ry

     iteration #  8     ecut=    80.00 Ry     beta= 0.70
     Davidson diagonalization with overlap
     c_bands:  1 eigenvalues not converged
     c_bands:  1 eigenvalues not converged
     c_bands:  1 eigenvalues not converged
     c_bands:  1 eigenvalues not converged
     ethr =  3.38E-06,  avg # of iterations =  3.0

     total cpu time spent up to now is      461.5 secs

     total energy              =   -4240.93457748 Ry
     estimated scf accuracy    <       0.00066389 Ry

     iteration #  9     ecut=    80.00 Ry     beta= 0.70
     Davidson diagonalization with overlap
     c_bands:  1 eigenvalues not converged
     ethr =  7.90E-07,  avg # of iterations =  6.0

     total cpu time spent up to now is      507.7 secs

     total energy              =   -4240.93470503 Ry
     estimated scf accuracy    <       0.00001254 Ry

     iteration # 10     ecut=    80.00 Ry     beta= 0.70
     Davidson diagonalization with overlap
     c_bands:  1 eigenvalues not converged
     ethr =  1.49E-08,  avg # of iterations = 10.4

     total cpu time spent up to now is      577.9 secs

     total energy              =   -4240.93472938 Ry
     estimated scf accuracy    <       0.00001575 Ry

     iteration # 11     ecut=    80.00 Ry     beta= 0.70
     Davidson diagonalization with overlap
     ethr =  1.49E-08,  avg # of iterations =  2.8

     total cpu time spent up to now is      618.3 secs

     total energy              =   -4240.93473142 Ry
     estimated scf accuracy    <       0.00000025 Ry

     iteration # 12     ecut=    80.00 Ry     beta= 0.70
     Davidson diagonalization with overlap
     c_bands:  1 eigenvalues not converged
     c_bands:  1 eigenvalues not converged
     c_bands:  1 eigenvalues not converged
     ethr =  2.92E-10,  avg # of iterations = 11.0

     total cpu time spent up to now is      694.3 secs

     total energy              =   -4240.93473174 Ry
     estimated scf accuracy    <       0.00000123 Ry

     iteration # 13     ecut=    80.00 Ry     beta= 0.70
     Davidson diagonalization with overlap
     ethr =  2.92E-10,  avg # of iterations =  5.3

     total cpu time spent up to now is      742.4 secs

     total energy              =   -4240.93473183 Ry
     estimated scf accuracy    <       0.00000007 Ry

     iteration # 14     ecut=    80.00 Ry     beta= 0.70
     Davidson diagonalization with overlap
     ethr =  7.75E-11,  avg # of iterations =  5.9

     total cpu time spent up to now is      793.4 secs

     total energy              =   -4240.93473186 Ry
     estimated scf accuracy    <       0.00000002 Ry

     iteration # 15     ecut=    80.00 Ry     beta= 0.70
     Davidson diagonalization with overlap
     ethr =  1.79E-11,  avg # of iterations =  1.6

     total cpu time spent up to now is      829.9 secs

     total energy              =   -4240.93473186 Ry
     estimated scf accuracy    <          3.1E-09 Ry

     iteration # 16     ecut=    80.00 Ry     beta= 0.70
     Davidson diagonalization with overlap
     c_bands:  1 eigenvalues not converged
     ethr =  3.74E-12,  avg # of iterations =  6.1

     total cpu time spent up to now is      882.2 secs

     total energy              =   -4240.93473186 Ry
     estimated scf accuracy    <          1.4E-09 Ry

     iteration # 17     ecut=    80.00 Ry     beta= 0.70
     Davidson diagonalization with overlap
     ethr =  1.64E-12,  avg # of iterations =  1.3

     total cpu time spent up to now is      917.0 secs

     total energy              =   -4240.93473186 Ry
     estimated scf accuracy    <          6.0E-10 Ry

     iteration # 18     ecut=    80.00 Ry     beta= 0.70
     Davidson diagonalization with overlap
     ethr =  7.10E-13,  avg # of iterations =  2.3

     total cpu time spent up to now is      954.7 secs

     total energy              =   -4240.93473186 Ry
     estimated scf accuracy    <          1.7E-10 Ry

     iteration # 19     ecut=    80.00 Ry     beta= 0.70
     Davidson diagonalization with overlap
     ethr =  2.00E-13,  avg # of iterations =  6.3

     total cpu time spent up to now is     1008.6 secs

     End of self-consistent calculation

          k = 0.0000 0.0000 0.0000 ( 36359 PWs)   bands (ev):

   -44.1573 -44.1572 -22.3017 -22.3017 -22.1966 -22.1966 -22.0779 -22.0778
    -7.6406  -7.1793  -6.9133  -6.7687  -6.5974  -5.2967  -5.1400  -4.9154
    -4.8586  -3.8667   0.4615   0.6679   0.7844   1.0481   1.4827   1.6121
     2.4140   2.5161   2.5962   2.9953   3.0538   3.0762   3.1515   3.5005
     3.5426   3.5746   3.8529   4.0377   4.0848   4.2795   4.3162   4.6216
     5.1958   5.5537   5.5573   5.5844   5.8576   6.0599   6.4245   6.7821
     6.9326   7.3047

          k = 0.0000 0.0000 0.1485 ( 36415 PWs)   bands (ev):

   -44.1573 -44.1572 -22.3017 -22.3017 -22.1966 -22.1966 -22.0779 -22.0778
    -7.6017  -7.3145  -6.8396  -6.7752  -6.4630  -5.6914  -4.9383  -4.8710
    -4.7084  -3.9828   0.4989   0.7060   0.9087   1.0587   1.0594   2.0468
     2.1249   2.4370   2.5654   3.0579   3.0734   3.1159   3.3093   3.3621
     3.6718   3.6838   3.8253   4.0274   4.0394   4.2991   4.3277   4.6409
     4.9518   5.0644   5.6993   5.9122   6.0521   6.0800   6.5812   6.7135
     6.7702   7.2861

          k = 0.0000 0.0000-0.2971 ( 36410 PWs)   bands (ev):

   -44.1573 -44.1573 -22.3017 -22.3017 -22.1966 -22.1966 -22.0779 -22.0779
    -7.4880  -7.4880  -6.7949  -6.7949  -6.1211  -6.1211  -4.9012  -4.9012
    -4.2923  -4.2923   0.6745   0.6745   0.8436   0.8436   1.4656   1.4656
     2.4972   2.4972   2.7033   2.7033   3.0752   3.0752   3.3414   3.3414
     3.8172   3.8172   3.8896   3.8896   4.3140   4.3140   4.4256   4.4256
     4.7290   4.7290   5.9608   5.9608   6.2513   6.2513   6.3802   6.3802
     7.1767   7.1767

          k = 0.2541 0.0645 0.0000 ( 36396 PWs)   bands (ev):

   -44.1569 -44.1569 -22.2998 -22.2998 -22.2067 -22.2067 -22.0766 -22.0766
    -7.5271  -7.0929  -6.8127  -6.7231  -6.5398  -5.2652  -5.1242  -4.8749
    -4.8174  -4.0028   0.5491   0.8044   0.9224   1.1658   1.2637   1.5086
     1.9423   2.1504   2.2137   2.5191   2.5966   2.9872   3.5124   3.6365
     3.6593   3.6926   3.7306   3.8141   4.0412   4.1231   4.2030   4.2693
     4.4594   4.7338   5.6666   6.0016   6.3034   6.5395   6.6149   6.8326
     7.0008   7.1431

          k = 0.2541 0.0645 0.1485 ( 36423 PWs)   bands (ev):

   -44.1569 -44.1569 -22.2998 -22.2998 -22.2067 -22.2067 -22.0766 -22.0766
    -7.4892  -7.2137  -6.7722  -6.7287  -6.3897  -5.6361  -4.9160  -4.8319
    -4.7093  -4.0959   0.5741   0.8452   0.9771   1.0018   1.1363   1.6203
     1.8750   2.3004   2.5070   2.5421   2.5835   2.9125   3.2462   3.3017
     3.6383   3.6793   3.8074   3.8789   3.9927   4.0814   4.2171   4.2772
     4.7011   5.0694   5.7914   5.8117   6.2237   6.2778   6.4861   6.6648
     7.2692   7.2795

          k = 0.2541 0.0645-0.2971 ( 36436 PWs)   bands (ev):

   -44.1569 -44.1569 -22.2998 -22.2998 -22.2067 -22.2067 -22.0766 -22.0766
    -7.3790  -7.3790  -6.7443  -6.7443  -6.0487  -6.0487  -4.8677  -4.8677
    -4.3530  -4.3530   0.7072   0.7072   0.9493   0.9493   1.3103   1.3103
     2.2778   2.2778   2.6190   2.6190   2.7184   2.7184   3.0814   3.0814
     3.5815   3.5815   3.8440   3.8440   4.0142   4.0142   4.2721   4.2721
     5.2100   5.2100   5.7361   5.7361   6.0662   6.0662   6.4776   6.4776
     7.4341   7.4342

          k = 0.5081 0.1290 0.0000 ( 36499 PWs)   bands (ev):

   -44.1559 -44.1559 -22.2951 -22.2951 -22.2309 -22.2309 -22.0736 -22.0735
    -7.2106  -6.8891  -6.5937  -6.5247  -6.3489  -5.2164  -5.1280  -4.7684
    -4.7157  -4.4148   0.4969   0.7395   0.7696   1.1719   1.3191   1.4944
     1.6560   1.8237   1.9663   2.1724   2.1729   2.2679   2.4828   3.2069
     3.3336   3.4044   3.4466   3.5565   3.7670   3.8411   3.9801   4.1526
     4.6750   5.3497   5.3597   5.8334   5.9075   6.5312   6.5446   6.8254
     7.3667   7.5686

          k = 0.5081 0.1290 0.1485 ( 36476 PWs)   bands (ev):

   -44.1559 -44.1559 -22.2951 -22.2951 -22.2309 -22.2309 -22.0736 -22.0735
    -7.1772  -6.9573  -6.5972  -6.5786  -6.1666  -5.5050  -4.9314  -4.7444
    -4.7017  -4.4477   0.5077   0.7530   0.9084   1.0908   1.2110   1.4291
     1.4695   1.6836   2.0409   2.0649   2.3288   2.5649   2.8558   3.2408
     3.3228   3.3962   3.4675   3.5690   3.6267   3.7919   3.8484   4.2129
     4.4185   4.6045   5.9989   6.0663   6.2142   6.5413   6.5855   6.7070
     7.2137   7.4764

          k = 0.5081 0.1290-0.2971 ( 36466 PWs)   bands (ev):

   -44.1559 -44.1559 -22.2951 -22.2951 -22.2309 -22.2309 -22.0735 -22.0735
    -7.0831  -7.0831  -6.5990  -6.5990  -5.8513  -5.8513  -4.8159  -4.8159
    -4.5527  -4.5527   0.6210   0.6210   1.1016   1.1016   1.2637   1.2637
     1.3591   1.3591   2.0602   2.0602   2.7889   2.7889   3.0978   3.0978
     3.3190   3.3190   3.5424   3.5424   3.7083   3.7083   3.8468   3.8468
     4.3016   4.3016   6.2277   6.2277   6.5304   6.5304   6.7638   6.7638
     7.0832   7.0832

          k = 0.7622 0.1934 0.0000 ( 36521 PWs)   bands (ev):

   -44.1550 -44.1550 -22.2902 -22.2902 -22.2551 -22.2551 -22.0705 -22.0704
    -6.8287  -6.7141  -6.3294  -6.0969  -5.9929  -5.2814  -5.2744  -5.0508
    -4.6471  -4.6122   0.0024   0.2985   0.6634   1.1644   1.1663   1.2278
     1.4776   1.5882   1.9029   1.9435   2.2638   2.4390   2.5255   2.7319
     2.7549   3.2496   3.2799   3.3384   3.6440   3.6573   3.7792   3.8581
     4.0039   4.5679   5.7463   6.1482   6.2290   6.6533   6.7065   6.7984
     7.1876   7.5472

          k = 0.7622 0.1934 0.1485 ( 36503 PWs)   bands (ev):

   -44.1550 -44.1550 -22.2902 -22.2902 -22.2551 -22.2551 -22.0705 -22.0704
    -6.8114  -6.7295  -6.3225  -6.2065  -5.8318  -5.4160  -5.1917  -5.0719
    -4.6361  -4.6125   0.0799   0.4019   0.5481   0.9626   1.1718   1.2067
     1.4932   1.6558   1.7195   2.0895   2.1297   2.6470   2.6672   2.7951
     2.8593   3.1626   3.2725   3.3660   3.4613   3.6475   3.6882   3.8815
     4.0115   4.7769   5.3456   6.2237   6.5282   6.5657   6.7147   6.8895
     6.9621   7.4426

          k = 0.7622 0.1934-0.2971 ( 36522 PWs)   bands (ev):

   -44.1550 -44.1550 -22.2902 -22.2902 -22.2551 -22.2551 -22.0705 -22.0705
    -6.7696  -6.7696  -6.2899  -6.2899  -5.6126  -5.6126  -5.1246  -5.1246
    -4.6192  -4.6192   0.2838   0.2838   0.7135   0.7135   1.0670   1.0670
     1.5756   1.5756   1.9691   1.9691   2.3751   2.3751   2.7958   2.7958
     2.9897   2.9897   3.4135   3.4135   3.5637   3.5637   3.7795   3.7795
     4.2108   4.2108   5.9573   5.9573   6.3557   6.3557   6.8034   6.8034
     7.2841   7.2841

          k =-1.0162-0.2579 0.0000 ( 36506 PWs)   bands (ev):

   -44.1546 -44.1546 -22.2880 -22.2880 -22.2652 -22.2652 -22.0692 -22.0692
    -6.6803  -6.6601  -5.7665  -5.7565  -5.6364  -5.6228  -5.5695  -5.5689
    -4.5891  -4.5718   0.0937   0.1209   0.4444   0.4626   1.0134   1.0211
     1.4703   1.6768   2.2199   2.3338   2.3338   2.3373   2.7969   2.8332
     2.8379   2.9545   3.2540   3.2778   3.2897   3.5066   3.5769   3.6500
     3.8589   3.9074   6.3387   6.3704   6.4344   6.5200   6.9139   6.9764
     6.9853   6.9932

          k =-1.0162-0.2579 0.1485 ( 36506 PWs)   bands (ev):

   -44.1546 -44.1546 -22.2880 -22.2880 -22.2652 -22.2652 -22.0692 -22.0692
    -6.6767  -6.6625  -5.7655  -5.7565  -5.6721  -5.6682  -5.5266  -5.5223
    -4.5929  -4.5807   0.0083   0.0174   0.6576   0.6616   1.0369   1.0645
     1.4634   1.5719   1.9189   1.9804   2.3602   2.3698   2.7582   2.7681
     2.9550   2.9587   3.1904   3.2313   3.5326   3.5520   3.7082   3.7325
     4.1210   4.1278   5.8364   5.8431   6.3684   6.4398   6.8609   6.9009
     7.2095   7.2302

          k =-1.0162-0.2579-0.2971 ( 36528 PWs)   bands (ev):

   -44.1546 -44.1546 -22.2880 -22.2880 -22.2652 -22.2652 -22.0692 -22.0692
    -6.6690  -6.6690  -5.7603  -5.7603  -5.6942  -5.6942  -5.4963  -5.4963
    -4.5933  -4.5933  -0.0457  -0.0457   0.8940   0.8940   1.0771   1.0771
     1.4965   1.4965   1.6086   1.6086   2.3627   2.3627   2.7918   2.7918
     2.9261   2.9261   3.2193   3.2193   3.5797   3.5797   3.7682   3.7682
     4.6429   4.6429   5.2267   5.2267   6.3367   6.3367   6.8974   6.8974
     7.2737   7.2737

          k = 0.5081 0.0000 0.0000 ( 36503 PWs)   bands (ev):

   -44.1559 -44.1559 -22.2951 -22.2951 -22.2309 -22.2309 -22.0736 -22.0735
    -7.2169  -6.8918  -6.5860  -6.5260  -6.3439  -5.2174  -5.1243  -4.7646
    -4.7206  -4.4144   0.4953   0.7367   0.7766   1.1385   1.3143   1.4739
     1.6617   1.8288   1.9774   2.1353   2.1636   2.2557   2.4916   3.1882
     3.3395   3.3956   3.5012   3.5833   3.7745   3.8270   4.0171   4.1902
     4.6772   5.3557   5.3625   5.8672   5.8873   6.4918   6.4929   6.8606
     7.3960   7.5691

          k = 0.5081 0.0000 0.1485 ( 36453 PWs)   bands (ev):

   -44.1559 -44.1559 -22.2951 -22.2951 -22.2309 -22.2309 -22.0736 -22.0735
    -7.1835  -6.9620  -6.5887  -6.5744  -6.1661  -5.5059  -4.9250  -4.7461
    -4.7027  -4.4485   0.5054   0.7478   0.9146   1.0927   1.1814   1.4237
     1.4524   1.6807   2.0360   2.0668   2.3278   2.5386   2.8479   3.2269
     3.3172   3.4258   3.4881   3.5925   3.6207   3.8361   3.8472   4.2476
     4.4340   4.6067   6.0010   6.0838   6.2171   6.4901   6.5505   6.7372
     7.2398   7.4800

          k = 0.5081 0.0000-0.2971 ( 36452 PWs)   bands (ev):

   -44.1559 -44.1559 -22.2951 -22.2951 -22.2309 -22.2309 -22.0735 -22.0735
    -7.0891  -7.0891  -6.5915  -6.5915  -5.8523  -5.8523  -4.8116  -4.8116
    -4.5554  -4.5554   0.6164   0.6164   1.1022   1.1022   1.2946   1.2946
     1.3046   1.3046   2.0596   2.0596   2.7797   2.7797   3.0735   3.0735
     3.3124   3.3124   3.6020   3.6020   3.7133   3.7133   3.8502   3.8502
     4.3268   4.3268   6.2431   6.2431   6.4964   6.4964   6.7778   6.7778
     7.0852   7.0852

          k = 0.7622 0.0645 0.0000 ( 36505 PWs)   bands (ev):

   -44.1550 -44.1550 -22.2902 -22.2902 -22.2551 -22.2551 -22.0705 -22.0704
    -6.8382  -6.7125  -6.3199  -6.0997  -5.9919  -5.2820  -5.2692  -5.0506
    -4.6413  -4.6193  -0.0039   0.3103   0.6892   1.1552   1.2000   1.2417
     1.4334   1.5432   1.8802   1.9546   2.2133   2.4189   2.5100   2.7073
     2.7331   3.3048   3.3176   3.3417   3.5991   3.6640   3.8342   3.8833
     4.0224   4.6119   5.7450   6.1640   6.1908   6.6195   6.7544   6.7637
     7.2123   7.5488

          k = 0.7622 0.0645 0.1485 ( 36509 PWs)   bands (ev):

   -44.1550 -44.1550 -22.2902 -22.2902 -22.2551 -22.2551 -22.0705 -22.0704
    -6.8199  -6.7302  -6.3133  -6.2042  -5.8338  -5.4165  -5.1877  -5.0710
    -4.6321  -4.6176   0.0768   0.4094   0.5576   0.9868   1.1757   1.2137
     1.4540   1.6557   1.7401   2.0214   2.0536   2.6551   2.6607   2.7628
     2.8497   3.1625   3.3413   3.3879   3.4214   3.6662   3.7186   3.8988
     4.0600   4.7761   5.3729   6.2087   6.5305   6.5507   6.7324   6.8876
     6.9442   7.4611

          k = 0.7622 0.0645-0.2971 ( 36472 PWs)   bands (ev):

   -44.1550 -44.1550 -22.2902 -22.2902 -22.2551 -22.2551 -22.0705 -22.0705
    -6.7749  -6.7749  -6.2830  -6.2830  -5.6147  -5.6147  -5.1219  -5.1219
    -4.6197  -4.6197   0.2865   0.2865   0.7100   0.7100   1.0932   1.0932
     1.5707   1.5707   1.9170   1.9170   2.3394   2.3394   2.7873   2.7873
     2.9875   2.9875   3.4818   3.4818   3.5603   3.5603   3.7726   3.7726
     4.2357   4.2357   5.9810   5.9810   6.3572   6.3572   6.7686   6.7686
     7.3101   7.3101

          k = 1.0162 0.1290 0.0000 ( 36514 PWs)   bands (ev):

   -44.1546 -44.1546 -22.2880 -22.2880 -22.2652 -22.2652 -22.0692 -22.0692
    -6.6803  -6.6601  -5.7659  -5.7571  -5.6364  -5.6228  -5.5705  -5.5680
    -4.5891  -4.5718   0.0879   0.1268   0.4384   0.4689   1.0085   1.0279
     1.4753   1.6681   2.2242   2.3158   2.3288   2.3431   2.7995   2.8313
     2.8680   2.9488   3.2241   3.2973   3.3005   3.5095   3.5562   3.6602
     3.8442   3.9183   6.3367   6.3738   6.4297   6.5252   6.9230   6.9794
     6.9812   6.9954

          k = 1.0162 0.1290 0.1485 ( 36524 PWs)   bands (ev):

   -44.1546 -44.1546 -22.2880 -22.2880 -22.2652 -22.2652 -22.0692 -22.0692
    -6.6767  -6.6625  -5.7650  -5.7570  -5.6724  -5.6679  -5.5270  -5.5220
    -4.5929  -4.5807   0.0062   0.0190   0.6558   0.6640   1.0412   1.0614
     1.4675   1.5698   1.9213   1.9727   2.3523   2.3659   2.7148   2.8212
     2.9641   2.9804   3.1632   3.2344   3.5249   3.5849   3.6993   3.7070
     4.1153   4.1396   5.8248   5.8568   6.3657   6.4423   6.8678   6.8999
     7.2126   7.2273

          k = 1.0162 0.1290-0.2971 ( 36516 PWs)   bands (ev):

   -44.1546 -44.1546 -22.2880 -22.2880 -22.2652 -22.2652 -22.0692 -22.0692
    -6.6690  -6.6690  -5.7603  -5.7603  -5.6942  -5.6942  -5.4963  -5.4963
    -4.5933  -4.5933  -0.0459  -0.0459   0.8933   0.8933   1.0796   1.0796
     1.4952   1.4952   1.6100   1.6100   2.3522   2.3522   2.7744   2.7744
     2.9754   2.9754   3.1965   3.1965   3.5866   3.5866   3.7596   3.7596
     4.6432   4.6432   5.2285   5.2285   6.3364   6.3364   6.8999   6.8999
     7.2735   7.2735

          k =-0.7622-0.3224 0.0000 ( 36511 PWs)   bands (ev):

   -44.1550 -44.1550 -22.2902 -22.2902 -22.2551 -22.2551 -22.0705 -22.0704
    -6.8135  -6.7178  -6.3430  -6.0928  -5.9944  -5.2818  -5.2805  -5.0512
    -4.6521  -4.6053   0.0115   0.2823   0.6291   1.1385   1.1817   1.2082
     1.5001   1.6586   1.9295   1.9484   2.3478   2.4552   2.5493   2.7575
     2.7877   3.1611   3.2486   3.3666   3.5994   3.6552   3.7658   3.8264
     3.9710   4.4974   5.7486   6.1434   6.2729   6.6255   6.7047   6.8658
     7.1473   7.5492

          k =-0.7622-0.3224 0.1485 ( 36492 PWs)   bands (ev):

   -44.1550 -44.1550 -22.2902 -22.2902 -22.2551 -22.2551 -22.0705 -22.0704
    -6.7980  -6.7294  -6.3356  -6.2100  -5.8291  -5.4152  -5.1972  -5.0732
    -4.6394  -4.6076   0.0839   0.3929   0.5333   0.9359   1.1622   1.2050
     1.5491   1.6513   1.6936   2.1894   2.2389   2.6397   2.6771   2.8274
     2.8710   3.1756   3.1865   3.3491   3.4774   3.6232   3.6573   3.8524
     3.9305   4.7767   5.3090   6.2482   6.5087   6.5796   6.7038   6.9138
     6.9832   7.4108

          k =-0.7622-0.3224-0.2971 ( 36508 PWs)   bands (ev):

   -44.1550 -44.1550 -22.2902 -22.2902 -22.2551 -22.2551 -22.0705 -22.0705
    -6.7617  -6.7617  -6.3000  -6.3000  -5.6097  -5.6097  -5.1284  -5.1284
    -4.6186  -4.6186   0.2795   0.2795   0.7186   0.7186   1.0371   1.0371
     1.5800   1.5800   2.0311   2.0311   2.4416   2.4416   2.8118   2.8118
     2.9910   2.9910   3.3203   3.3203   3.5689   3.5689   3.7732   3.7732
     4.1769   4.1769   5.9259   5.9259   6.3520   6.3520   6.8628   6.8628
     7.2399   7.2399

          k =-0.5081-0.2579 0.0000 ( 36480 PWs)   bands (ev):

   -44.1559 -44.1559 -22.2951 -22.2951 -22.2309 -22.2309 -22.0736 -22.0735
    -7.1946  -6.8831  -6.6120  -6.5215  -6.3615  -5.2140  -5.1370  -4.7743
    -4.7071  -4.4157   0.5024   0.7393   0.7538   1.2680   1.3294   1.5463
     1.6476   1.8182   1.9416   2.2014   2.2387   2.2906   2.4654   3.2571
     3.3243   3.3319   3.4238   3.4615   3.7371   3.8496   3.9264   4.0766
     4.6666   5.3379   5.3472   5.7542   5.9593   6.6295   6.6647   6.7410
     7.2922   7.5515

          k =-0.5081-0.2579 0.1485 ( 36485 PWs)   bands (ev):

   -44.1559 -44.1559 -22.2951 -22.2951 -22.2309 -22.2309 -22.0736 -22.0735
    -7.1613  -6.9458  -6.6166  -6.5912  -6.1678  -5.5027  -4.9461  -4.7419
    -4.6984  -4.4457   0.5137   0.7612   0.8940   1.0869   1.2938   1.4319
     1.5274   1.6861   2.0533   2.0638   2.3304   2.6233   2.8740   3.2744
     3.2973   3.3363   3.4498   3.4786   3.6279   3.7515   3.8273   4.1388
     4.3732   4.5989   5.9732   6.0442   6.2090   6.6310   6.6599   6.6813
     7.1478   7.4710

          k =-0.5081-0.2579-0.2971 ( 36478 PWs)   bands (ev):

   -44.1559 -44.1559 -22.2951 -22.2951 -22.2309 -22.2309 -22.0735 -22.0735
    -7.0680  -7.0680  -6.6180  -6.6180  -5.8489  -5.8489  -4.8260  -4.8260
    -4.5465  -4.5465   0.6314   0.6314   1.0992   1.0992   1.2423   1.2423
     1.4460   1.4460   2.0603   2.0603   2.8131   2.8131   3.1608   3.1608
     3.3336   3.3336   3.3952   3.3952   3.6979   3.6979   3.8360   3.8360
     4.2387   4.2387   6.1892   6.1892   6.6022   6.6022   6.7387   6.7387
     7.0829   7.0829

          k =-0.2541-0.1934 0.0000 ( 36410 PWs)   bands (ev):

   -44.1569 -44.1569 -22.2998 -22.2998 -22.2067 -22.2067 -22.0766 -22.0766
    -7.5157  -7.0821  -6.8105  -6.7384  -6.5568  -5.2636  -5.1315  -4.8821
    -4.8084  -4.0038   0.5810   0.8791   0.9320   1.1899   1.2953   1.5094
     1.9637   2.1693   2.2191   2.4829   2.5749   3.0568   3.4061   3.5299
     3.5874   3.6864   3.7887   3.8014   3.9739   4.1193   4.1777   4.2341
     4.3998   4.7028   5.7149   6.0162   6.3431   6.5799   6.6020   6.8524
     6.9974   7.0679

          k =-0.2541-0.1934 0.1485 ( 36427 PWs)   bands (ev):

   -44.1569 -44.1569 -22.2998 -22.2998 -22.2067 -22.2067 -22.0766 -22.0766
    -7.4777  -7.2021  -6.7823  -6.7432  -6.3957  -5.6346  -4.9338  -4.8275
    -4.7026  -4.0956   0.6002   0.9040   1.0082   1.0377   1.1551   1.6375
     1.8761   2.3027   2.4997   2.5249   2.5895   2.9132   3.2464   3.3292
     3.5052   3.6392   3.7361   3.8817   3.9699   4.0655   4.1677   4.2242
     4.6829   5.0498   5.7824   5.8188   6.1918   6.3229   6.5679   6.6815
     7.2237   7.2736

          k =-0.2541-0.1934-0.2971 ( 36422 PWs)   bands (ev):

   -44.1569 -44.1569 -22.2998 -22.2998 -22.2067 -22.2067 -22.0766 -22.0766
    -7.3674  -7.3674  -6.7591  -6.7591  -6.0484  -6.0484  -4.8741  -4.8741
    -4.3498  -4.3498   0.7259   0.7259   1.0153   1.0153   1.3199   1.3199
     2.2765   2.2765   2.5835   2.5835   2.7347   2.7347   3.1132   3.1132
     3.4959   3.4959   3.7986   3.7986   4.0073   4.0073   4.2149   4.2149
     5.2030   5.2030   5.6975   5.6975   6.0550   6.0550   6.5671   6.5671
     7.4094   7.4095

          k = 0.0000-0.1290 0.0000 ( 36417 PWs)   bands (ev):

   -44.1573 -44.1572 -22.3017 -22.3017 -22.1966 -22.1966 -22.0779 -22.0778
    -7.6346  -7.1726  -6.9121  -6.7772  -6.6076  -5.2961  -5.1438  -4.9207
    -4.8526  -3.8673   0.4877   0.7103   0.7902   1.0519   1.5067   1.6223
     2.4178   2.5161   2.6032   3.0034   3.0487   3.1144   3.1494   3.4455
     3.4725   3.5640   3.7907   4.0159   4.0848   4.2271   4.2666   4.6230
     5.1884   5.5098   5.5796   5.5916   5.8706   6.1018   6.4771   6.7516
     6.9334   7.2862

          k = 0.0000-0.1290 0.1485 ( 36419 PWs)   bands (ev):

   -44.1573 -44.1573 -22.3017 -22.3017 -22.1966 -22.1966 -22.0779 -22.0778
    -7.5957  -7.3081  -6.8440  -6.7833  -6.4676  -5.6908  -4.9489  -4.8677
    -4.7048  -3.9828   0.5214   0.7484   0.9248   1.0515   1.0830   2.0555
     2.1398   2.4411   2.5718   3.0529   3.0969   3.1124   3.2650   3.3280
     3.6697   3.6754   3.7572   3.9788   4.0378   4.2529   4.2816   4.6423
     4.9497   5.0505   5.7066   5.9149   6.0636   6.0930   6.5696   6.7552
     6.7711   7.2717

          k = 0.0000-0.1290-0.2971 ( 36464 PWs)   bands (ev):

   -44.1573 -44.1573 -22.3017 -22.3017 -22.1966 -22.1966 -22.0779 -22.0779
    -7.4818  -7.4818  -6.8027  -6.8027  -6.1215  -6.1215  -4.9046  -4.9046
    -4.2908  -4.2908   0.7043   0.7043   0.8587   0.8587   1.4753   1.4753
     2.5023   2.5023   2.7138   2.7138   3.0707   3.0707   3.3014   3.3014
     3.7906   3.7906   3.8845   3.8845   4.2306   4.2306   4.4379   4.4379
     4.7297   4.7297   5.9460   5.9460   6.2750   6.2750   6.3816   6.3816
     7.1820   7.1820

          k = 1.0162 0.0000 0.0000 ( 36499 PWs)   bands (ev):

   -44.1546 -44.1546 -22.2880 -22.2880 -22.2652 -22.2652 -22.0692 -22.0692
    -6.6803  -6.6601  -5.7652  -5.7579  -5.6365  -5.6228  -5.5710  -5.5675
    -4.5891  -4.5718   0.0835   0.1313   0.4341   0.4733   1.0060   1.0322
     1.4809   1.6588   2.2299   2.2981   2.3265   2.3463   2.8042   2.8227
     2.9136   2.9315   3.2104   3.2984   3.3135   3.5060   3.5405   3.6749
     3.8263   3.9283   6.3350   6.3768   6.4253   6.5301   6.9341   6.9752
     6.9823   6.9976

          k = 1.0162 0.0000 0.1485 ( 36485 PWs)   bands (ev):

   -44.1546 -44.1546 -22.2880 -22.2880 -22.2652 -22.2652 -22.0692 -22.0692
    -6.6768  -6.6625  -5.7644  -5.7576  -5.6727  -5.6676  -5.5273  -5.5217
    -4.5929  -4.5807   0.0046   0.0202   0.6548   0.6656   1.0488   1.0549
     1.4721   1.5674   1.9246   1.9639   2.3462   2.3608   2.6997   2.8396
     2.9705   3.0275   3.1209   3.2359   3.5242   3.6361   3.6553   3.6917
     4.1130   4.1477   5.8196   5.8642   6.3633   6.4446   6.8759   6.8977
     7.2188   7.2212

          k = 1.0162 0.0000-0.2971 ( 36514 PWs)   bands (ev):

   -44.1546 -44.1546 -22.2880 -22.2880 -22.2652 -22.2652 -22.0692 -22.0692
    -6.6690  -6.6690  -5.7603  -5.7603  -5.6943  -5.6943  -5.4963  -5.4963
    -4.5933  -4.5933  -0.0460  -0.0460   0.8925   0.8925   1.0822   1.0822
     1.4939   1.4939   1.6113   1.6113   2.3422   2.3422   2.7627   2.7627
     3.0294   3.0294   3.1630   3.1630   3.5941   3.5941   3.7505   3.7505
     4.6434   4.6434   5.2303   5.2303   6.3361   6.3361   6.9024   6.9024
     7.2734   7.2734

          k = 1.2703 0.0645 0.0000 ( 36468 PWs)   bands (ev):

   -44.1550 -44.1550 -22.2902 -22.2902 -22.2551 -22.2551 -22.0705 -22.0704
    -6.8009  -6.7222  -6.3528  -6.0900  -5.9956  -5.2871  -5.2798  -5.0515
    -4.6547  -4.6015   0.0180   0.2712   0.6062   1.1308   1.1923   1.1923
     1.5034   1.7088   1.9209   1.9892   2.4112   2.4656   2.5675   2.7720
     2.8089   3.0806   3.2544   3.4384   3.5475   3.5503   3.8058   3.8234
     3.9440   4.4385   5.7504   6.1455   6.3035   6.5683   6.7445   6.9209
     7.1112   7.5578

          k = 1.2703 0.0645 0.1485 ( 36490 PWs)   bands (ev):

   -44.1550 -44.1550 -22.2902 -22.2902 -22.2551 -22.2551 -22.0705 -22.0704
    -6.7870  -6.7305  -6.3450  -6.2126  -5.8271  -5.4148  -5.2010  -5.0742
    -4.6410  -4.6049   0.0863   0.3877   0.5217   0.9208   1.1543   1.2071
     1.6064   1.6479   1.6574   2.2664   2.3172   2.6411   2.6829   2.8456
     2.8778   3.0943   3.2301   3.3559   3.4278   3.5859   3.7104   3.8132
     3.8546   4.7757   5.2845   6.2699   6.4776   6.5889   6.7074   6.9436
     6.9967   7.3841

          k = 1.2703 0.0645-0.2971 ( 36480 PWs)   bands (ev):

   -44.1550 -44.1550 -22.2902 -22.2902 -22.2551 -22.2551 -22.0705 -22.0705
    -6.7560  -6.7560  -6.3073  -6.3073  -5.6077  -5.6077  -5.1311  -5.1311
    -4.6181  -4.6181   0.2762   0.2762   0.7221   0.7221   1.0198   1.0198
     1.5828   1.5828   2.0650   2.0650   2.5007   2.5007   2.8415   2.8415
     2.9814   2.9814   3.2441   3.2441   3.5794   3.5794   3.7575   3.7575
     4.1543   4.1543   5.9050   5.9050   6.3487   6.3487   6.9159   6.9159
     7.1992   7.1992

          k =-0.5081-0.3869 0.0000 ( 36463 PWs)   bands (ev):

   -44.1559 -44.1559 -22.2951 -22.2951 -22.2309 -22.2309 -22.0736 -22.0735
    -7.1770  -6.8784  -6.6293  -6.5183  -6.3752  -5.2116  -5.1461  -4.7776
    -4.7009  -4.4167   0.5106   0.7303   0.7390   1.3385   1.4069   1.5893
     1.6335   1.8345   1.9039   2.2424   2.2689   2.2995   2.4669   3.1994
     3.3074   3.3405   3.3506   3.4672   3.7015   3.7615   3.9052   4.0625
     4.6558   5.3216   5.3287   5.6819   6.0166   6.6560   6.7417   6.7796
     7.2040   7.5512

          k =-0.5081-0.3869 0.1485 ( 36477 PWs)   bands (ev):

   -44.1559 -44.1559 -22.2951 -22.2951 -22.2309 -22.2309 -22.0736 -22.0735
    -7.1439  -6.9341  -6.6347  -6.6069  -6.1689  -5.5005  -4.9598  -4.7412
    -4.6945  -4.4439   0.5210   0.7633   0.8802   1.0831   1.4054   1.4368
     1.5776   1.6864   2.0667   2.0724   2.3239   2.6723   2.8933   3.1719
     3.3107   3.3341   3.3726   3.4823   3.6317   3.7226   3.7777   4.1028
     4.3089   4.5938   5.9194   6.0506   6.2065   6.5652   6.7629   6.7970
     7.0681   7.4772

          k =-0.5081-0.3869-0.2971 ( 36492 PWs)   bands (ev):

   -44.1559 -44.1559 -22.2951 -22.2951 -22.2309 -22.2309 -22.0735 -22.0735
    -7.0516  -7.0516  -6.6383  -6.6383  -5.8464  -5.8464  -4.8357  -4.8357
    -4.5406  -4.5406   0.6411   0.6411   1.0954   1.0954   1.2296   1.2296
     1.5400   1.5400   2.0563   2.0563   2.8391   2.8391   3.2099   3.2099
     3.2670   3.2670   3.3537   3.3537   3.6715   3.6715   3.8264   3.8264
     4.1737   4.1737   6.1511   6.1511   6.6293   6.6293   6.7520   6.7520
     7.0920   7.0920

          k =-0.2541-0.3224 0.0000 ( 36485 PWs)   bands (ev):

   -44.1569 -44.1569 -22.2998 -22.2998 -22.2067 -22.2067 -22.0766 -22.0766
    -7.4985  -7.0666  -6.8073  -6.7584  -6.5833  -5.2614  -5.1424  -4.8873
    -4.8002  -4.0053   0.6083   0.9464   1.0075   1.2390   1.3676   1.5078
     1.9975   2.2005   2.2215   2.3994   2.5181   3.1765   3.2513   3.3446
     3.5335   3.6928   3.7693   3.8142   3.9556   4.0565   4.1293   4.1936
     4.3940   4.6358   5.7919   6.0298   6.3769   6.5280   6.6869   6.8820
     6.9491   7.0064

          k =-0.2541-0.3224 0.1485 ( 36445 PWs)   bands (ev):

   -44.1569 -44.1569 -22.2998 -22.2998 -22.2067 -22.2067 -22.0766 -22.0766
    -7.4605  -7.1847  -6.7989  -6.7636  -6.4038  -5.6324  -4.9552  -4.8244
    -4.6938  -4.0953   0.6200   0.9535   1.0687   1.1234   1.2263   1.6628
     1.8827   2.2964   2.4179   2.5135   2.6022   2.9064   3.2619   3.3223
     3.3395   3.5097   3.7667   3.8791   3.9286   4.0588   4.0883   4.1468
     4.6835   5.0135   5.7680   5.8396   6.1796   6.3058   6.6713   6.7225
     7.1675   7.2651

          k =-0.2541-0.3224-0.2971 ( 36442 PWs)   bands (ev):

   -44.1569 -44.1569 -22.2998 -22.2998 -22.2067 -22.2067 -22.0766 -22.0766
    -7.3499  -7.3499  -6.7811  -6.7811  -6.0478  -6.0478  -4.8832  -4.8832
    -4.3454  -4.3454   0.7362   0.7362   1.1479   1.1479   1.3344   1.3344
     2.2694   2.2694   2.5163   2.5163   2.7489   2.7489   3.1709   3.1709
     3.3216   3.3216   3.7932   3.7932   4.0034   4.0034   4.1330   4.1330
     5.1964   5.1964   5.6569   5.6569   6.0253   6.0253   6.6749   6.6749
     7.3752   7.3752

          k = 0.0000-0.2579 0.0000 ( 36445 PWs)   bands (ev):

   -44.1573 -44.1573 -22.3017 -22.3017 -22.1966 -22.1966 -22.0779 -22.0778
    -7.6195  -7.1561  -6.9092  -6.7969  -6.6339  -5.2944  -5.1536  -4.9284
    -4.8428  -3.8689   0.5361   0.8046   0.8272   1.0912   1.5609   1.6460
     2.4271   2.5126   2.6210   3.0357   3.0377   3.1445   3.2142   3.2353
     3.2548   3.5380   3.7445   3.9917   4.0846   4.0864   4.1427   4.6267
     5.1709   5.4401   5.6089   5.6468   5.9025   6.1621   6.5768   6.6664
     6.9353   7.2470

          k = 0.0000-0.2579 0.1485 ( 36452 PWs)   bands (ev):

   -44.1573 -44.1573 -22.3017 -22.3017 -22.1966 -22.1966 -22.0779 -22.0778
    -7.5804  -7.2920  -6.8563  -6.8026  -6.4784  -5.6892  -4.9707  -4.8634
    -4.6966  -3.9827   0.5579   0.8571   0.9860   1.0794   1.1119   2.0787
     2.1731   2.4513   2.5879   3.0404   3.0906   3.1039   3.1624   3.1875
     3.6426   3.6549   3.6800   3.9280   4.0340   4.1326   4.1712   4.6460
     4.9446   5.0296   5.7318   5.9217   6.0850   6.1046   6.5355   6.7733
     6.8327   7.2333

          k = 0.0000-0.2579-0.2971 ( 36454 PWs)   bands (ev):

   -44.1573 -44.1573 -22.3017 -22.3017 -22.1966 -22.1966 -22.0779 -22.0779
    -7.4663  -7.4663  -6.8222  -6.8222  -6.1221  -6.1221  -4.9127  -4.9127
    -4.2871  -4.2871   0.7388   0.7388   0.9470   0.9470   1.4997   1.4997
     2.5150   2.5150   2.7305   2.7305   3.0594   3.0594   3.1514   3.1514
     3.7684   3.7684   3.8722   3.8722   4.0929   4.0929   4.4314   4.4314
     4.7314   4.7314   5.9134   5.9134   6.3130   6.3130   6.3851   6.3851
     7.1734   7.1735

          k = 1.5243 0.0000 0.0000 ( 36439 PWs)   bands (ev):

   -44.1559 -44.1559 -22.2951 -22.2951 -22.2309 -22.2309 -22.0736 -22.0735
    -7.1692  -6.8771  -6.6361  -6.5170  -6.3811  -5.2106  -5.1499  -4.7785
    -4.6989  -4.4171   0.5149   0.7242   0.7331   1.3419   1.5325   1.5534
     1.6181   1.8457   1.8925   2.2637   2.2759   2.2862   2.4789   3.1457
     3.2834   3.3225   3.3638   3.5372   3.6576   3.6897   3.8999   4.0760
     4.6509   5.3051   5.3254   5.6556   6.0427   6.6199   6.8095   6.8145
     7.1579   7.5506

          k = 1.5243 0.0000 0.1485 ( 36476 PWs)   bands (ev):

   -44.1559 -44.1559 -22.2951 -22.2951 -22.2309 -22.2309 -22.0736 -22.0735
    -7.1362  -6.9293  -6.6415  -6.6146  -6.1693  -5.4995  -4.9652  -4.7413
    -4.6927  -4.4431   0.5244   0.7624   0.8747   1.0816   1.4283   1.5068
     1.5489   1.6984   2.0736   2.0811   2.3153   2.6860   2.9062   3.1182
     3.2706   3.3470   3.3601   3.5725   3.5738   3.7005   3.7480   4.1123
     4.2692   4.5920   5.8939   6.0569   6.2060   6.5371   6.8085   6.8579
     7.0199   7.4882

          k = 1.5243 0.0000-0.2971 ( 36508 PWs)   bands (ev):

   -44.1559 -44.1559 -22.2951 -22.2951 -22.2309 -22.2309 -22.0735 -22.0735
    -7.0443  -7.0443  -6.6472  -6.6472  -5.8454  -5.8454  -4.8396  -4.8396
    -4.5383  -4.5383   0.6449   0.6449   1.0935   1.0935   1.2253   1.2253
     1.5847   1.5847   2.0521   2.0521   2.8499   2.8499   3.1608   3.1608
     3.2930   3.2930   3.3597   3.3597   3.6496   3.6496   3.8239   3.8239
     4.1465   4.1465   6.1357   6.1357   6.6240   6.6240   6.7707   6.7707
     7.1001   7.1001

          k =-0.2541-0.4514 0.0000 ( 36444 PWs)   bands (ev):

   -44.1569 -44.1569 -22.2998 -22.2998 -22.2067 -22.2067 -22.0766 -22.0766
    -7.4856  -7.0559  -6.8050  -6.7707  -6.6044  -5.2598  -5.1502  -4.8889
    -4.7963  -4.0064   0.6163   0.9573   1.1179   1.2801   1.4574   1.5047
     2.0361   2.2100   2.2259   2.3039   2.4390   3.1418   3.2219   3.2855
     3.5329   3.7110   3.7451   3.7475   3.9596   4.0040   4.0999   4.1677
     4.4530   4.5501   5.8554   6.0364   6.3930   6.4851   6.7384   6.8819
     6.9060   6.9976

          k =-0.2541-0.4514 0.1485 ( 36461 PWs)   bands (ev):

   -44.1569 -44.1569 -22.2998 -22.2998 -22.2067 -22.2067 -22.0766 -22.0766
    -7.4475  -7.1715  -6.8120  -6.7786  -6.4093  -5.6309  -4.9688  -4.8235
    -4.6880  -4.0950   0.6243   0.9716   1.0817   1.2591   1.3080   1.6838
     1.8970   2.2696   2.3202   2.4751   2.6177   2.8949   3.2074   3.2211
     3.3624   3.5115   3.7927   3.8308   3.9103   4.0038   4.0688   4.1070
     4.6990   4.9807   5.7602   5.8578   6.1906   6.2540   6.7380   6.7517
     7.1347   7.2596

          k =-0.2541-0.4514-0.2971 ( 36490 PWs)   bands (ev):

   -44.1569 -44.1569 -22.2998 -22.2998 -22.2067 -22.2067 -22.0766 -22.0766
    -7.3367  -7.3367  -6.7976  -6.7976  -6.0473  -6.0473  -4.8896  -4.8896
    -4.3423  -4.3423   0.7371   0.7371   1.2696   1.2696   1.3527   1.3527
     2.2458   2.2458   2.4501   2.4501   2.7562   2.7562   3.1869   3.1869
     3.2388   3.2388   3.7859   3.7859   4.0035   4.0035   4.0796   4.0796
     5.1937   5.1937   5.6340   5.6340   5.9986   5.9986   6.7399   6.7399
     7.3524   7.3524

          k = 0.0000-0.3869 0.0000 ( 36477 PWs)   bands (ev):

   -44.1573 -44.1573 -22.3017 -22.3017 -22.1966 -22.1966 -22.0779 -22.0778
    -7.6034  -7.1390  -6.9063  -6.8143  -6.6639  -5.2927  -5.1639  -4.9317
    -4.8368  -3.8705   0.5600   0.8197   0.9876   1.1575   1.6260   1.6682
     2.4369   2.4968   2.6400   2.9430   3.0218   3.0250   3.0913   3.1395
     3.3518   3.5114   3.7730   3.9048   3.9759   4.0080   4.0843   4.6306
     5.1537   5.4009   5.6262   5.7243   5.9361   6.1963   6.5625   6.6487
     6.9369   7.2136

          k = 0.0000-0.3869 0.1485 ( 36452 PWs)   bands (ev):

   -44.1573 -44.1573 -22.3017 -22.3017 -22.1966 -22.1966 -22.0779 -22.0778
    -7.5643  -7.2748  -6.8712  -6.8216  -6.4889  -5.6875  -4.9894  -4.8614
    -4.6890  -3.9826   0.5701   0.9742   1.0446   1.1267   1.1984   2.1058
     2.1991   2.4619   2.6050   2.8786   2.9112   3.0271   3.0949   3.2793
     3.6206   3.6343   3.6809   3.9085   4.0052   4.0299   4.0604   4.6498
     4.9394   5.0196   5.7665   5.9291   6.0894   6.1043   6.4955   6.7756
     6.8846   7.1955

          k = 0.0000-0.3869-0.2971 ( 36454 PWs)   bands (ev):

   -44.1573 -44.1573 -22.3017 -22.3017 -22.1966 -22.1966 -22.0779 -22.0779
    -7.4498  -7.4498  -6.8429  -6.8429  -6.1225  -6.1225  -4.9209  -4.9209
    -4.2834  -4.2834   0.7401   0.7401   1.0987   1.0987   1.5265   1.5265
     2.5284   2.5284   2.6847   2.6847   2.9989   2.9989   3.0476   3.0476
     3.7785   3.7785   3.8598   3.8598   3.9867   3.9867   4.4187   4.4187
     4.7333   4.7333   5.8797   5.8797   6.3358   6.3358   6.3889   6.3889
     7.1477   7.1477

          k =-2.0325 0.0000 0.0000 ( 36452 PWs)   bands (ev):

   -44.1573 -44.1573 -22.3017 -22.3017 -22.1966 -22.1966 -22.0779 -22.0778
    -7.5965  -7.1319  -6.9051  -6.8204  -6.6778  -5.2920  -5.1683  -4.9322
    -4.8350  -3.8712   0.5635   0.8261   1.0950   1.1640   1.6673   1.6769
     2.4410   2.4821   2.6484   2.7977   2.9329   3.0158   3.1208   3.1375
     3.4444   3.5002   3.7938   3.8004   3.9467   3.9630   4.0841   4.6323
     5.1468   5.3898   5.6335   5.7610   5.9513   6.2064   6.5122   6.6726
     6.9376   7.2010

          k =-2.0325 0.0000 0.1485 ( 36456 PWs)   bands (ev):

   -44.1573 -44.1573 -22.3017 -22.3017 -22.1966 -22.1966 -22.0779 -22.0778
    -7.5573  -7.2673  -6.8781  -6.8296  -6.4931  -5.6868  -4.9966  -4.8610
    -4.6860  -3.9825   0.5701   1.0175   1.0557   1.1673   1.2643   2.1172
     2.2080   2.4664   2.6125   2.7484   2.8095   3.0213   3.0911   3.3422
     3.5999   3.6258   3.7011   3.8793   3.9582   4.0207   4.0281   4.6515
     4.9373   5.0177   5.7850   5.9324   6.0746   6.1119   6.4782   6.7765
     6.8998   7.1819

          k =-2.0325 0.0000-0.2971 ( 36460 PWs)   bands (ev):

   -44.1573 -44.1573 -22.3017 -22.3017 -22.1966 -22.1966 -22.0779 -22.0779
    -7.4426  -7.4426  -6.8518  -6.8518  -6.1226  -6.1226  -4.9242  -4.9242
    -4.2819  -4.2819   0.7373   0.7373   1.1791   1.1791   1.5394   1.5394
     2.5341   2.5341   2.6136   2.6136   2.9709   2.9709   3.0426   3.0426
     3.7798   3.7798   3.8546   3.8546   3.9523   3.9523   4.4139   4.4139
     4.7341   4.7341   5.8646   5.8646   6.3424   6.3424   6.3906   6.3906
     7.1349   7.1349

     the Fermi energy is     5.2953 ev

!    total energy              =   -4240.93473186 Ry

     total all-electron energy =   -150287.628427 Ry
     estimated scf accuracy    <          9.0E-11 Ry
     smearing contrib. (-TS)   =       0.00001969 Ry
     internal energy E=F+TS    =   -4240.93475154 Ry

     The total energy is F=E-TS. E is the sum of the following terms:
     one-electron contribution =    -164.76043182 Ry
     hartree contribution      =     115.84572189 Ry
     xc contribution           =    -201.41077132 Ry
     ewald contribution        =    -223.10054694 Ry
     one-center paw contrib.   =   -3767.50872335 Ry

     convergence has been achieved in  19 iterations

     Forces acting on atoms (cartesian axes, Ry/au):

     atom    1 type  1   force =     0.00000000   -0.02257272    0.00000000
     atom    2 type  1   force =    -0.00000000    0.02257272    0.00000000
     atom    3 type  2   force =     0.00000000    0.00232711    0.00000000
     atom    4 type  2   force =     0.00000000   -0.00232711    0.00000000
     atom    5 type  2   force =     0.00000000    0.00495250    0.00002014
     atom    6 type  2   force =     0.00000000   -0.00495250   -0.00002014
     atom    7 type  2   force =     0.00000000    0.00495250   -0.00002014
     atom    8 type  2   force =     0.00000000   -0.00495250    0.00002014
     atom    9 type  2   force =     0.00000000    0.01918220    0.01456122
     atom   10 type  2   force =     0.00000000   -0.01918220   -0.01456122
     atom   11 type  2   force =    -0.00000000    0.01918220   -0.01456122
     atom   12 type  2   force =    -0.00000000   -0.01918220    0.01456122

     Total force =     0.058719     Total SCF correction =     0.000014


     Computing stress (Cartesian axis) and pressure

          total   stress  (Ry/bohr**3)                   (kbar)     P=       -4.86
  -0.00001675   0.00000000   0.00000000           -2.46        0.00        0.00
   0.00000000  -0.00003189   0.00000000            0.00       -4.69        0.00
   0.00000000   0.00000000  -0.00005051            0.00        0.00       -7.43

 
     init_run     :     20.10s CPU     20.58s WALL (       1 calls)
     electrons    :    975.64s CPU    987.77s WALL (       1 calls)
     forces       :      6.81s CPU      7.04s WALL (       1 calls)
     stress       :     43.84s CPU     44.43s WALL (       1 calls)

     Called by init_run:
     wfcinit      :     15.70s CPU     15.89s WALL (       1 calls)
     potinit      :      1.34s CPU      1.38s WALL (       1 calls)
     hinit0       :      1.74s CPU      1.79s WALL (       1 calls)

     Called by electrons:
     c_bands      :    808.31s CPU    811.79s WALL (      20 calls)
     sum_band     :    139.55s CPU    143.78s WALL (      20 calls)
     v_of_rho     :      6.04s CPU      6.32s WALL (      20 calls)
     newd         :     15.18s CPU     18.75s WALL (      20 calls)
     PAW_pot      :      6.40s CPU      6.40s WALL (      20 calls)
     mix_rho      :      0.92s CPU      1.64s WALL (      20 calls)

     Called by c_bands:
     init_us_2    :     11.89s CPU     11.94s WALL (    2709 calls)
     cegterg      :    726.49s CPU    729.32s WALL (    1260 calls)

     Called by *egterg:
     cdiaghg      :     28.69s CPU     28.90s WALL (    8637 calls)
     h_psi        :    556.63s CPU    559.20s WALL (    8763 calls)
     s_psi        :     46.12s CPU     46.18s WALL (    8763 calls)
     g_psi        :      2.05s CPU      2.06s WALL (    7440 calls)

     Called by h_psi:
     h_psi:calbec :     40.19s CPU     40.27s WALL (    8763 calls)
     vloc_psi     :    467.44s CPU    469.79s WALL (    8763 calls)
     add_vuspsi   :     45.91s CPU     45.97s WALL (    8763 calls)

     General routines
     calbec       :     53.39s CPU     53.50s WALL (   10338 calls)
     fft          :      3.59s CPU      3.71s WALL (     284 calls)
     ffts         :      0.08s CPU      0.08s WALL (      40 calls)
     fftw         :    442.66s CPU    444.80s WALL (  458114 calls)
     interpolate  :      0.32s CPU      0.32s WALL (      20 calls)
 
     Parallel routines
 
     PWSCF        :  17m26.60s CPU  17m40.09s WALL

 
   This run was terminated on:  15:37:18  19Nov2021            

=------------------------------------------------------------------------------=
   JOB DONE.
=------------------------------------------------------------------------------=
