
     Program PWSCF v.6.8 starts on 19Nov2021 at 15:17:54 

     This program is part of the open-source Quantum ESPRESSO suite
     for quantum simulation of materials; please cite
         "P. Giannozzi et al., J. Phys.:Condens. Matter 21 395502 (2009);
         "P. Giannozzi et al., J. Phys.:Condens. Matter 29 465901 (2017);
         "P. Giannozzi et al., J. Chem. Phys. 152 154105 (2020);
          URL http://www.quantum-espresso.org", 
     in publications or presentations arising from this work. More details at
     http://www.quantum-espresso.org/quote

     Parallel version (MPI), running on    10 processors

     MPI processes distributed on     1 nodes
     R & G space division:  proc/nbgrp/npool/nimage =      10
     70911 MiB available memory on the printing compute node when the environment starts
 
     Waiting for input...
     Reading input from standard input

     Current dimensions of program PWSCF are:
     Max number of different atomic species (ntypx) = 10
     Max number of k-points (npk) =  40000
     Max angular momentum in pseudopotentials (lmaxx) =  4
     file Zr.pbe-spn-kjpaw_psl.1.0.0.UPF: wavefunction(s)  4S 4P renormalized
     file Te.pbe-n-kjpaw_psl.1.0.0.UPF: wavefunction(s)  5S 5P renormalized
     Message from routine setup:
     using ibrav=0 with symmetry is DISCOURAGED, use correct ibrav instead

     Subspace diagonalization in iterative solution of the eigenvalue problem:
     a serial algorithm will be used

 
     Parallelization info
     --------------------
     sticks:   dense  smooth     PW     G-vecs:    dense   smooth      PW
     Min         734     293     87               115340    29174    4753
     Max         735     295     88               115345    29176    4760
     Sum        7345    2937    873              1153415   291749   47557
 
     Using Slab Decomposition
 


     bravais-lattice index     =            0
     lattice parameter (alat)  =      15.5510  a.u.
     unit-cell volume          =    3018.5011 (a.u.)^3
     number of atoms/cell      =           12
     number of atomic types    =            2
     number of electrons       =        84.00
     number of Kohn-Sham states=           50
     kinetic-energy cutoff     =      80.0000  Ry
     charge density cutoff     =     800.0000  Ry
     scf convergence threshold =      1.0E-10
     mixing beta               =       0.7000
     number of iterations used =            8  plain     mixing
     Exchange-correlation= SLA  PW   PBX  PBC
                           (   1   4   3   4   0   0   0)

     celldm(1)=  15.551040  celldm(2)=   0.000000  celldm(3)=   0.000000
     celldm(4)=   0.000000  celldm(5)=   0.000000  celldm(6)=   0.000000

     crystal axes: (cart. coord. in units of alat)
               a(1) = (   0.246007  -0.969268   0.000000 )  
               a(2) = (   0.246007   0.969268   0.000000 )  
               a(3) = (   0.000000   0.000000   1.683031 )  

     reciprocal axes: (cart. coord. in units 2 pi/alat)
               b(1) = (  2.032465 -0.515853  0.000000 )  
               b(2) = (  2.032465  0.515853  0.000000 )  
               b(3) = (  0.000000  0.000000  0.594166 )  


     PseudoPot. # 1 for Zr read from file:
     pseudo/Zr.pbe-spn-kjpaw_psl.1.0.0.UPF
     MD5 check sum: 02112c41713a0468aff2bb39ef194e36
     Pseudo is Projector augmented-wave + core cor, Zval = 12.0
     Generated using &quot;atomic&quot; code by A. Dal Corso  v.6.2.2
     Shape of augmentation charge: PSQ
     Using radial grid of 1225 points,  6 beta functions with: 
                l(1) =   0
                l(2) =   0
                l(3) =   1
                l(4) =   1
                l(5) =   2
                l(6) =   2
     Q(r) pseudized with 0 coefficients 


     PseudoPot. # 2 for Te read from file:
     pseudo/Te.pbe-n-kjpaw_psl.1.0.0.UPF
     MD5 check sum: 66247bff2bd9dbf220fbb0bf5ab56e9d
     Pseudo is Projector augmented-wave + core cor, Zval =  6.0
     Generated using &quot;atomic&quot; code by A. Dal Corso  v.6.3
     Shape of augmentation charge: PSQ
     Using radial grid of 1245 points,  6 beta functions with: 
                l(1) =   0
                l(2) =   0
                l(3) =   1
                l(4) =   1
                l(5) =   2
                l(6) =   2
     Q(r) pseudized with 0 coefficients 


     atomic species   valence    mass     pseudopotential
        Zr            12.00    91.22000     Zr( 1.00)
        Te             6.00   127.60000     Te( 1.00)

      8 Sym. Ops., with inversion, found ( 4 have fractional translation)



   Cartesian axes

     site n.     atom                  positions (alat units)
         1           Zr  tau(   1) = (   0.0000000   0.6093544   0.4207578  )
         2           Zr  tau(   2) = (   0.2460067   0.3599137   1.2622733  )
         3           Te  tau(   3) = (   0.2460067   0.3343237   0.4207578  )
         4           Te  tau(   4) = (   0.0000000   0.6349444   1.2622733  )
         5           Te  tau(   5) = (   0.2460067   0.8081201   0.2508991  )
         6           Te  tau(   6) = (   0.0000000   0.1611480   1.4321320  )
         7           Te  tau(   7) = (   0.2460067   0.8081201   0.5906164  )
         8           Te  tau(   8) = (   0.0000000   0.1611480   1.0924146  )
         9           Te  tau(   9) = (   0.0000000   0.4083278   0.7246198  )
        10           Te  tau(  10) = (   0.2460067   0.5609404   0.9584113  )
        11           Te  tau(  11) = (   0.0000000   0.4083278   0.1168958  )
        12           Te  tau(  12) = (   0.2460067   0.5609404   1.5661353  )

     number of k points=    63  Methfessel-Paxton smearing, width (Ry)=  0.0030
                       cart. coord. in units 2pi/alat
        k(    1) = (   0.0000000   0.0000000   0.0000000), wk =   0.0078125
        k(    2) = (   0.0000000   0.0000000   0.1485415), wk =   0.0156250
        k(    3) = (   0.0000000   0.0000000  -0.2970830), wk =   0.0078125
        k(    4) = (   0.2540581   0.0644816   0.0000000), wk =   0.0312500
        k(    5) = (   0.2540581   0.0644816   0.1485415), wk =   0.0625000
        k(    6) = (   0.2540581   0.0644816  -0.2970830), wk =   0.0312500
        k(    7) = (   0.5081162   0.1289633   0.0000000), wk =   0.0312500
        k(    8) = (   0.5081162   0.1289633   0.1485415), wk =   0.0625000
        k(    9) = (   0.5081162   0.1289633  -0.2970830), wk =   0.0312500
        k(   10) = (   0.7621743   0.1934449   0.0000000), wk =   0.0312500
        k(   11) = (   0.7621743   0.1934449   0.1485415), wk =   0.0625000
        k(   12) = (   0.7621743   0.1934449  -0.2970830), wk =   0.0312500
        k(   13) = (  -1.0162324  -0.2579266   0.0000000), wk =   0.0156250
        k(   14) = (  -1.0162324  -0.2579266   0.1485415), wk =   0.0312500
        k(   15) = (  -1.0162324  -0.2579266  -0.2970830), wk =   0.0156250
        k(   16) = (   0.5081162   0.0000000   0.0000000), wk =   0.0156250
        k(   17) = (   0.5081162   0.0000000   0.1485415), wk =   0.0312500
        k(   18) = (   0.5081162   0.0000000  -0.2970830), wk =   0.0156250
        k(   19) = (   0.7621743   0.0644816   0.0000000), wk =   0.0312500
        k(   20) = (   0.7621743   0.0644816   0.1485415), wk =   0.0625000
        k(   21) = (   0.7621743   0.0644816  -0.2970830), wk =   0.0312500
        k(   22) = (   1.0162324   0.1289633   0.0000000), wk =   0.0312500
        k(   23) = (   1.0162324   0.1289633   0.1485415), wk =   0.0625000
        k(   24) = (   1.0162324   0.1289633  -0.2970830), wk =   0.0312500
        k(   25) = (  -0.7621743  -0.3224082   0.0000000), wk =   0.0312500
        k(   26) = (  -0.7621743  -0.3224082   0.1485415), wk =   0.0625000
        k(   27) = (  -0.7621743  -0.3224082  -0.2970830), wk =   0.0312500
        k(   28) = (  -0.5081162  -0.2579266   0.0000000), wk =   0.0312500
        k(   29) = (  -0.5081162  -0.2579266   0.1485415), wk =   0.0625000
        k(   30) = (  -0.5081162  -0.2579266  -0.2970830), wk =   0.0312500
        k(   31) = (  -0.2540581  -0.1934449   0.0000000), wk =   0.0312500
        k(   32) = (  -0.2540581  -0.1934449   0.1485415), wk =   0.0625000
        k(   33) = (  -0.2540581  -0.1934449  -0.2970830), wk =   0.0312500
        k(   34) = (   0.0000000  -0.1289633   0.0000000), wk =   0.0156250
        k(   35) = (   0.0000000  -0.1289633   0.1485415), wk =   0.0312500
        k(   36) = (   0.0000000  -0.1289633  -0.2970830), wk =   0.0156250
        k(   37) = (   1.0162324   0.0000000   0.0000000), wk =   0.0156250
        k(   38) = (   1.0162324   0.0000000   0.1485415), wk =   0.0312500
        k(   39) = (   1.0162324   0.0000000  -0.2970830), wk =   0.0156250
        k(   40) = (   1.2702905   0.0644816   0.0000000), wk =   0.0312500
        k(   41) = (   1.2702905   0.0644816   0.1485415), wk =   0.0625000
        k(   42) = (   1.2702905   0.0644816  -0.2970830), wk =   0.0312500
        k(   43) = (  -0.5081162  -0.3868899   0.0000000), wk =   0.0312500
        k(   44) = (  -0.5081162  -0.3868899   0.1485415), wk =   0.0625000
        k(   45) = (  -0.5081162  -0.3868899  -0.2970830), wk =   0.0312500
        k(   46) = (  -0.2540581  -0.3224082   0.0000000), wk =   0.0312500
        k(   47) = (  -0.2540581  -0.3224082   0.1485415), wk =   0.0625000
        k(   48) = (  -0.2540581  -0.3224082  -0.2970830), wk =   0.0312500
        k(   49) = (   0.0000000  -0.2579266   0.0000000), wk =   0.0156250
        k(   50) = (   0.0000000  -0.2579266   0.1485415), wk =   0.0312500
        k(   51) = (   0.0000000  -0.2579266  -0.2970830), wk =   0.0156250
        k(   52) = (   1.5243485   0.0000000   0.0000000), wk =   0.0156250
        k(   53) = (   1.5243485   0.0000000   0.1485415), wk =   0.0312500
        k(   54) = (   1.5243485   0.0000000  -0.2970830), wk =   0.0156250
        k(   55) = (  -0.2540581  -0.4513715   0.0000000), wk =   0.0312500
        k(   56) = (  -0.2540581  -0.4513715   0.1485415), wk =   0.0625000
        k(   57) = (  -0.2540581  -0.4513715  -0.2970830), wk =   0.0312500
        k(   58) = (   0.0000000  -0.3868899   0.0000000), wk =   0.0156250
        k(   59) = (   0.0000000  -0.3868899   0.1485415), wk =   0.0312500
        k(   60) = (   0.0000000  -0.3868899  -0.2970830), wk =   0.0156250
        k(   61) = (  -2.0324647   0.0000000   0.0000000), wk =   0.0078125
        k(   62) = (  -2.0324647   0.0000000   0.1485415), wk =   0.0156250
        k(   63) = (  -2.0324647   0.0000000  -0.2970830), wk =   0.0078125

     Dense  grid:  1153415 G-vectors     FFT dimensions: ( 144, 144, 240)

     Smooth grid:   291749 G-vectors     FFT dimensions: (  90,  90, 150)

     Estimated max dynamical RAM per process >     657.19 MB

     Estimated total dynamical RAM >       6.42 GB

     Initial potential from superposition of free atoms

     starting charge   83.99353, renormalised to   84.00000
     Starting wfcs are   66 randomized atomic wfcs
     Checking if some PAW data can be deallocated... 

     total cpu time spent up to now is       21.5 secs

     Self-consistent Calculation

     iteration #  1     ecut=    80.00 Ry     beta= 0.70
     Davidson diagonalization with overlap
     ethr =  1.00E-02,  avg # of iterations =  2.0

     Threshold (ethr) on eigenvalues was too large:
     Diagonalizing with lowered threshold

     Davidson diagonalization with overlap
     ethr =  3.90E-04,  avg # of iterations =  4.0

     total cpu time spent up to now is      112.4 secs

     total energy              =   -4240.72474499 Ry
     estimated scf accuracy    <       0.42925891 Ry

     iteration #  2     ecut=    80.00 Ry     beta= 0.70
     Davidson diagonalization with overlap
     ethr =  5.11E-04,  avg # of iterations =  7.8

     total cpu time spent up to now is      177.8 secs

     total energy              =   -4240.62897888 Ry
     estimated scf accuracy    <       2.14713308 Ry

     iteration #  3     ecut=    80.00 Ry     beta= 0.70
     Davidson diagonalization with overlap
     ethr =  5.11E-04,  avg # of iterations =  5.2

     total cpu time spent up to now is      233.6 secs

     total energy              =   -4240.92418058 Ry
     estimated scf accuracy    <       0.01880438 Ry

     iteration #  4     ecut=    80.00 Ry     beta= 0.70
     Davidson diagonalization with overlap
     c_bands:  1 eigenvalues not converged
     c_bands:  2 eigenvalues not converged
     c_bands:  1 eigenvalues not converged
     c_bands:  1 eigenvalues not converged
     c_bands:  1 eigenvalues not converged
     c_bands:  1 eigenvalues not converged
     c_bands:  2 eigenvalues not converged
     c_bands:  2 eigenvalues not converged
     c_bands:  1 eigenvalues not converged
     c_bands:  1 eigenvalues not converged
     c_bands:  1 eigenvalues not converged
     c_bands:  1 eigenvalues not converged
     c_bands:  1 eigenvalues not converged
     c_bands:  2 eigenvalues not converged
     c_bands:  2 eigenvalues not converged
     ethr =  2.24E-05,  avg # of iterations = 16.7

     total cpu time spent up to now is      332.9 secs

     total energy              =   -4240.94128005 Ry
     estimated scf accuracy    <       0.10453670 Ry

     iteration #  5     ecut=    80.00 Ry     beta= 0.70
     Davidson diagonalization with overlap
     ethr =  2.24E-05,  avg # of iterations =  6.0

     total cpu time spent up to now is      385.3 secs

     total energy              =   -4240.94378851 Ry
     estimated scf accuracy    <       0.02209391 Ry

     iteration #  6     ecut=    80.00 Ry     beta= 0.70
     Davidson diagonalization with overlap
     ethr =  2.24E-05,  avg # of iterations =  2.8

     total cpu time spent up to now is      428.3 secs

     total energy              =   -4240.94523086 Ry
     estimated scf accuracy    <       0.00260071 Ry

     iteration #  7     ecut=    80.00 Ry     beta= 0.70
     Davidson diagonalization with overlap
     c_bands:  1 eigenvalues not converged
     c_bands:  1 eigenvalues not converged
     c_bands:  1 eigenvalues not converged
     c_bands:  1 eigenvalues not converged
     ethr =  3.10E-06,  avg # of iterations = 12.9

     total cpu time spent up to now is      505.7 secs

     total energy              =   -4240.94670631 Ry
     estimated scf accuracy    <       0.00263762 Ry

     iteration #  8     ecut=    80.00 Ry     beta= 0.70
     Davidson diagonalization with overlap
     c_bands:  1 eigenvalues not converged
     c_bands:  1 eigenvalues not converged
     ethr =  3.10E-06,  avg # of iterations =  2.9

     total cpu time spent up to now is      545.3 secs

     total energy              =   -4240.94671783 Ry
     estimated scf accuracy    <       0.00053682 Ry

     iteration #  9     ecut=    80.00 Ry     beta= 0.70
     Davidson diagonalization with overlap
     ethr =  6.39E-07,  avg # of iterations =  6.6

     total cpu time spent up to now is      597.2 secs

     total energy              =   -4240.94685170 Ry
     estimated scf accuracy    <       0.00000624 Ry

     iteration # 10     ecut=    80.00 Ry     beta= 0.70
     Davidson diagonalization with overlap
     ethr =  7.43E-09,  avg # of iterations =  9.5

     total cpu time spent up to now is      674.8 secs

     total energy              =   -4240.94686385 Ry
     estimated scf accuracy    <       0.00001334 Ry

     iteration # 11     ecut=    80.00 Ry     beta= 0.70
     Davidson diagonalization with overlap
     ethr =  7.43E-09,  avg # of iterations =  3.5

     total cpu time spent up to now is      721.2 secs

     total energy              =   -4240.94686563 Ry
     estimated scf accuracy    <       0.00000020 Ry

     iteration # 12     ecut=    80.00 Ry     beta= 0.70
     Davidson diagonalization with overlap
     ethr =  2.41E-10,  avg # of iterations =  8.9

     total cpu time spent up to now is      795.6 secs

     total energy              =   -4240.94686585 Ry
     estimated scf accuracy    <       0.00000038 Ry

     iteration # 13     ecut=    80.00 Ry     beta= 0.70
     Davidson diagonalization with overlap
     ethr =  2.41E-10,  avg # of iterations =  2.3

     total cpu time spent up to now is      837.3 secs

     total energy              =   -4240.94686586 Ry
     estimated scf accuracy    <       0.00000005 Ry

     iteration # 14     ecut=    80.00 Ry     beta= 0.70
     Davidson diagonalization with overlap
     ethr =  5.57E-11,  avg # of iterations =  7.3

     total cpu time spent up to now is      896.9 secs

     total energy              =   -4240.94686589 Ry
     estimated scf accuracy    <       0.00000003 Ry

     iteration # 15     ecut=    80.00 Ry     beta= 0.70
     Davidson diagonalization with overlap
     ethr =  3.18E-11,  avg # of iterations =  1.8

     total cpu time spent up to now is      936.3 secs

     total energy              =   -4240.94686589 Ry
     estimated scf accuracy    <          8.9E-09 Ry

     iteration # 16     ecut=    80.00 Ry     beta= 0.70
     Davidson diagonalization with overlap
     ethr =  1.05E-11,  avg # of iterations =  4.5

     total cpu time spent up to now is      980.8 secs

     total energy              =   -4240.94686589 Ry
     estimated scf accuracy    <          4.7E-10 Ry

     iteration # 17     ecut=    80.00 Ry     beta= 0.70
     Davidson diagonalization with overlap
     ethr =  5.61E-13,  avg # of iterations =  8.0

     total cpu time spent up to now is     1046.6 secs

     total energy              =   -4240.94686589 Ry
     estimated scf accuracy    <          2.1E-10 Ry

     iteration # 18     ecut=    80.00 Ry     beta= 0.70
     Davidson diagonalization with overlap
     ethr =  2.49E-13,  avg # of iterations =  2.1

     total cpu time spent up to now is     1086.9 secs

     End of self-consistent calculation

          k = 0.0000 0.0000 0.0000 ( 36359 PWs)   bands (ev):

   -44.1476 -44.1476 -22.2851 -22.2851 -22.1844 -22.1844 -22.0707 -22.0706
    -7.7022  -7.1509  -7.1494  -6.8002  -6.4689  -5.3604  -5.0580  -4.8837
    -4.8299  -3.8562   0.4136   0.7142   0.7606   1.0798   1.5054   1.5503
     2.4014   2.4315   2.6649   2.9273   3.0026   3.0136   3.1501   3.4862
     3.6024   3.6749   3.8891   4.0516   4.1561   4.3058   4.3249   4.6367
     5.0266   5.5444   5.5995   5.6881   5.8446   6.0038   6.3219   6.8212
     6.9478   7.2823

          k = 0.0000 0.0000 0.1485 ( 36415 PWs)   bands (ev):

   -44.1476 -44.1476 -22.2851 -22.2851 -22.1844 -22.1844 -22.0706 -22.0706
    -7.6634  -7.3699  -6.9565  -6.8118  -6.3716  -5.6915  -4.8966  -4.8404
    -4.6946  -3.9734   0.4643   0.7517   0.9100   1.0432   1.0546   1.9855
     2.0986   2.4289   2.6072   2.9500   2.9969   3.1114   3.3673   3.3689
     3.6729   3.7576   3.8763   4.0464   4.1041   4.3254   4.3394   4.6479
     4.8680   5.0441   5.7467   5.9440   6.0027   6.0227   6.6109   6.6476
     6.7776   7.2495

          k = 0.0000 0.0000-0.2971 ( 36410 PWs)   bands (ev):

   -44.1476 -44.1476 -22.2851 -22.2851 -22.1844 -22.1844 -22.0706 -22.0706
    -7.5496  -7.5496  -6.8534  -6.8534  -6.0872  -6.0872  -4.8661  -4.8661
    -4.2836  -4.2836   0.6602   0.6602   0.8788   0.8788   1.4117   1.4117
     2.5056   2.5056   2.6815   2.6815   2.9796   2.9796   3.4118   3.4118
     3.8522   3.8522   3.9449   3.9449   4.3287   4.3287   4.4113   4.4113
     4.7059   4.7059   5.9589   5.9589   6.2259   6.2259   6.3858   6.3858
     7.1142   7.1142

          k = 0.2541 0.0645 0.0000 ( 36396 PWs)   bands (ev):

   -44.1472 -44.1472 -22.2832 -22.2832 -22.1943 -22.1943 -22.0694 -22.0693
    -7.5877  -7.0716  -7.0452  -6.7535  -6.4075  -5.3213  -5.0550  -4.8421
    -4.7875  -3.9975   0.5006   0.8472   0.8945   1.1983   1.3280   1.4279
     1.9100   2.0031   2.1975   2.5386   2.5822   3.0617   3.4223   3.6863
     3.7038   3.7319   3.7766   3.7871   4.0108   4.2018   4.2383   4.2554
     4.4717   4.6615   5.7301   5.9838   6.2613   6.5516   6.6214   6.8287
     7.0055   7.1480

          k = 0.2541 0.0645 0.1485 ( 36423 PWs)   bands (ev):

   -44.1472 -44.1472 -22.2832 -22.2832 -22.1943 -22.1943 -22.0694 -22.0694
    -7.5499  -7.2660  -6.8860  -6.7638  -6.3041  -5.6367  -4.8744  -4.8001
    -4.6997  -4.0915   0.5388   0.8871   0.9748   0.9836   1.1526   1.5600
     1.8415   2.3016   2.3994   2.5372   2.5510   2.9296   3.2824   3.3100
     3.6246   3.7023   3.8727   3.9043   4.0085   4.1085   4.2531   4.2981
     4.6876   4.9823   5.8148   5.8522   6.2031   6.2702   6.4621   6.6937
     7.2494   7.3056

          k = 0.2541 0.0645-0.2971 ( 36436 PWs)   bands (ev):

   -44.1472 -44.1472 -22.2832 -22.2832 -22.1943 -22.1943 -22.0694 -22.0694
    -7.4392  -7.4392  -6.7995  -6.7995  -6.0188  -6.0188  -4.8312  -4.8312
    -4.3490  -4.3490   0.6912   0.6912   0.9888   0.9888   1.2516   1.2516
     2.2952   2.2952   2.5252   2.5252   2.6795   2.6795   3.1237   3.1237
     3.6033   3.6033   3.8866   3.8866   4.0564   4.0564   4.2972   4.2972
     5.1341   5.1341   5.7542   5.7542   6.1024   6.1024   6.4541   6.4541
     7.4359   7.4360

          k = 0.5081 0.1290 0.0000 ( 36499 PWs)   bands (ev):

   -44.1463 -44.1463 -22.2785 -22.2784 -22.2182 -22.2182 -22.0665 -22.0664
    -7.2659  -6.8887  -6.7404  -6.6246  -6.2115  -5.2443  -5.1013  -4.7332
    -4.6829  -4.4234   0.5498   0.6352   0.6992   1.2028   1.2657   1.5059
     1.6730   1.7842   2.0404   2.0884   2.1666   2.3039   2.3345   3.2959
     3.3873   3.4508   3.4838   3.5839   3.7675   3.8755   3.9252   4.1585
     4.5499   5.2356   5.4424   5.9453   5.9699   6.5563   6.5694   6.8764
     7.4091   7.5663

          k = 0.5081 0.1290 0.1485 ( 36476 PWs)   bands (ev):

   -44.1463 -44.1463 -22.2785 -22.2784 -22.2182 -22.2182 -22.0665 -22.0664
    -7.2320  -6.9929  -6.6914  -6.6313  -6.0985  -5.5052  -4.9130  -4.7111
    -4.6823  -4.4556   0.5118   0.7124   0.8254   1.0642   1.2384   1.4224
     1.4809   1.6258   2.0293   2.0818   2.3242   2.5148   2.8075   3.3211
     3.3861   3.4178   3.4924   3.5822   3.6625   3.7561   3.8459   4.2180
     4.3670   4.5607   6.0607   6.1250   6.2396   6.5608   6.6120   6.7468
     7.2497   7.4917

          k = 0.5081 0.1290-0.2971 ( 36466 PWs)   bands (ev):

   -44.1463 -44.1463 -22.2785 -22.2785 -22.2182 -22.2182 -22.0664 -22.0664
    -7.1348  -7.1348  -6.6519  -6.6519  -5.8301  -5.8301  -4.7832  -4.7832
    -4.5552  -4.5552   0.6003   0.6003   1.0771   1.0771   1.2039   1.2039
     1.3811   1.3811   2.0571   2.0571   2.7508   2.7508   3.1289   3.1289
     3.3653   3.3653   3.5509   3.5509   3.7004   3.7004   3.8254   3.8254
     4.3028   4.3028   6.2980   6.2980   6.5409   6.5409   6.7915   6.7915
     7.1026   7.1026

          k = 0.7622 0.1934 0.0000 ( 36521 PWs)   bands (ev):

   -44.1454 -44.1454 -22.2736 -22.2736 -22.2420 -22.2420 -22.0635 -22.0635
    -6.8619  -6.7260  -6.3771  -6.2793  -5.8778  -5.3208  -5.2526  -5.0709
    -4.6108  -4.5755   0.0110   0.1999   0.6242   1.1005   1.1237   1.2442
     1.4760   1.5962   1.9268   1.9905   2.2677   2.4087   2.4550   2.7629
     2.8105   3.2596   3.3126   3.3870   3.6335   3.6802   3.7651   3.7807
     3.9316   4.5658   5.7969   6.2191   6.2914   6.7429   6.7648   6.8630
     7.2368   7.5837

          k = 0.7622 0.1934 0.1485 ( 36503 PWs)   bands (ev):

   -44.1454 -44.1454 -22.2736 -22.2736 -22.2420 -22.2420 -22.0635 -22.0635
    -6.8427  -6.7457  -6.3747  -6.3160  -5.7866  -5.4238  -5.1979  -5.0896
    -4.6007  -4.5767   0.0703   0.3199   0.4983   0.9483   1.1098   1.2108
     1.4913   1.6522   1.7809   2.0767   2.1358   2.6356   2.6907   2.8006
     2.8710   3.1274   3.2719   3.3858   3.5022   3.6234   3.6629   3.9112
     3.9850   4.6532   5.4854   6.2771   6.5810   6.6416   6.8022   6.9266
     7.0128   7.5057

          k = 0.7622 0.1934-0.2971 ( 36522 PWs)   bands (ev):

   -44.1454 -44.1454 -22.2736 -22.2736 -22.2420 -22.2420 -22.0635 -22.0635
    -6.7947  -6.7947  -6.3589  -6.3589  -5.6030  -5.6030  -5.1371  -5.1371
    -4.5845  -4.5845   0.2467   0.2467   0.6500   0.6500   1.0745   1.0745
     1.5721   1.5721   1.9971   1.9971   2.3677   2.3677   2.7995   2.7995
     2.9953   2.9953   3.3700   3.3700   3.5803   3.5803   3.8214   3.8214
     4.1546   4.1546   6.0292   6.0292   6.3933   6.3933   6.8862   6.8862
     7.3451   7.3451

          k =-1.0162-0.2579 0.0000 ( 36506 PWs)   bands (ev):

   -44.1450 -44.1450 -22.2715 -22.2715 -22.2519 -22.2519 -22.0623 -22.0623
    -6.6958  -6.6758  -5.8425  -5.8314  -5.7603  -5.7498  -5.4568  -5.4562
    -4.5535  -4.5322   0.0535   0.0786   0.3958   0.4160   1.0111   1.0200
     1.4662   1.6719   2.2327   2.3678   2.3718   2.3736   2.7888   2.8158
     2.8189   2.8975   3.2500   3.2626   3.3037   3.4660   3.5767   3.6613
     3.7894   3.9826   6.4220   6.4489   6.4926   6.5755   6.9639   7.0403
     7.0518   7.0583

          k =-1.0162-0.2579 0.1485 ( 36506 PWs)   bands (ev):

   -44.1450 -44.1450 -22.2715 -22.2715 -22.2519 -22.2519 -22.0623 -22.0623
    -6.6922  -6.6780  -5.8568  -5.8482  -5.7476  -5.7414  -5.4484  -5.4483
    -4.5552  -4.5401  -0.0388  -0.0306   0.6185   0.6245   1.0205   1.0440
     1.4635   1.5863   1.9395   2.0214   2.3736   2.3872   2.7353   2.7353
     2.9461   2.9928   3.1495   3.2072   3.5518   3.5631   3.7022   3.7409
     4.0696   4.1130   5.9034   5.9145   6.4193   6.4932   6.9745   7.0088
     7.2588   7.2901

          k =-1.0162-0.2579-0.2971 ( 36528 PWs)   bands (ev):

   -44.1450 -44.1450 -22.2715 -22.2715 -22.2519 -22.2519 -22.0623 -22.0623
    -6.6844  -6.6844  -5.8652  -5.8652  -5.7368  -5.7368  -5.4401  -5.4401
    -4.5525  -4.5525  -0.0963  -0.0963   0.9165   0.9165   0.9621   0.9621
     1.5589   1.5589   1.6191   1.6191   2.3740   2.3740   2.7780   2.7780
     2.9299   2.9299   3.1779   3.1779   3.6114   3.6114   3.7849   3.7849
     4.5076   4.5076   5.3750   5.3750   6.3807   6.3807   7.0141   7.0141
     7.3378   7.3378

          k = 0.5081 0.0000 0.0000 ( 36503 PWs)   bands (ev):

   -44.1463 -44.1463 -22.2785 -22.2784 -22.2182 -22.2182 -22.0665 -22.0664
    -7.2713  -6.8904  -6.7414  -6.6183  -6.2073  -5.2450  -5.0980  -4.7286
    -4.6887  -4.4230   0.5502   0.6416   0.6942   1.1729   1.2606   1.4846
     1.6760   1.7899   2.0594   2.0750   2.1257   2.3090   2.3296   3.2799
     3.4058   3.4260   3.5405   3.5989   3.7737   3.8613   3.9705   4.1956
     4.5520   5.2347   5.4482   5.9476   5.9824   6.5164   6.5184   6.9117
     7.4329   7.5759

          k = 0.5081 0.0000 0.1485 ( 36453 PWs)   bands (ev):

   -44.1463 -44.1463 -22.2785 -22.2784 -22.2182 -22.2182 -22.0665 -22.0664
    -7.2374  -6.9969  -6.6881  -6.6251  -6.0964  -5.5057  -4.9074  -4.7130
    -4.6826  -4.4565   0.5112   0.7074   0.8297   1.0660   1.2136   1.4340
     1.4438   1.6178   2.0248   2.0877   2.3316   2.4833   2.8009   3.3087
     3.3862   3.4494   3.4960   3.5930   3.6576   3.8172   3.8405   4.2540
     4.3816   4.5591   6.0584   6.1400   6.2494   6.5104   6.5762   6.7780
     7.2740   7.4975

          k = 0.5081 0.0000-0.2971 ( 36452 PWs)   bands (ev):

   -44.1463 -44.1463 -22.2785 -22.2785 -22.2182 -22.2182 -22.0664 -22.0664
    -7.1398  -7.1398  -6.6460  -6.6460  -5.8301  -5.8301  -4.7791  -4.7791
    -4.5580  -4.5580   0.5964   0.5964   1.0771   1.0771   1.2237   1.2237
     1.3363   1.3363   2.0578   2.0578   2.7418   2.7418   3.1104   3.1104
     3.3608   3.3608   3.5911   3.5911   3.7175   3.7175   3.8280   3.8280
     4.3258   4.3258   6.3137   6.3137   6.5056   6.5056   6.8074   6.8074
     7.1042   7.1042

          k = 0.7622 0.0645 0.0000 ( 36505 PWs)   bands (ev):

   -44.1454 -44.1454 -22.2736 -22.2736 -22.2420 -22.2420 -22.0635 -22.0635
    -6.8711  -6.7240  -6.3681  -6.2814  -5.8773  -5.3166  -5.2534  -5.0704
    -4.6032  -4.5842   0.0057   0.2111   0.6462   1.1114   1.1328   1.2585
     1.4353   1.5546   1.9026   2.0057   2.2444   2.3694   2.4374   2.7356
     2.7966   3.3141   3.3398   3.4007   3.6133   3.6520   3.7882   3.8267
     3.9495   4.6062   5.7950   6.2312   6.2602   6.7123   6.8202   6.8224
     7.2576   7.5903

          k = 0.7622 0.0645 0.1485 ( 36509 PWs)   bands (ev):

   -44.1454 -44.1454 -22.2736 -22.2736 -22.2420 -22.2420 -22.0635 -22.0635
    -6.8511  -6.7464  -6.3660  -6.3144  -5.7874  -5.4236  -5.1955  -5.0888
    -4.5955  -4.5829   0.0697   0.3252   0.5078   0.9656   1.1108   1.2261
     1.4554   1.6516   1.8066   2.0037   2.0652   2.6535   2.6761   2.7759
     2.8571   3.1288   3.3352   3.4011   3.4727   3.6383   3.6824   3.9294
     4.0270   4.6518   5.5118   6.2590   6.5876   6.6355   6.8183   6.9237
     6.9908   7.5244

          k = 0.7622 0.0645-0.2971 ( 36472 PWs)   bands (ev):

   -44.1454 -44.1454 -22.2736 -22.2736 -22.2420 -22.2420 -22.0635 -22.0635
    -6.8001  -6.8001  -6.3523  -6.3523  -5.6043  -5.6043  -5.1351  -5.1351
    -4.5849  -4.5849   0.2516   0.2516   0.6450   0.6450   1.0992   1.0992
     1.5658   1.5658   1.9486   1.9486   2.3345   2.3345   2.7965   2.7965
     2.9877   2.9877   3.4344   3.4344   3.5769   3.5769   3.8109   3.8109
     4.1777   4.1777   6.0538   6.0538   6.3945   6.3945   6.8523   6.8523
     7.3718   7.3718

          k = 1.0162 0.1290 0.0000 ( 36514 PWs)   bands (ev):

   -44.1450 -44.1450 -22.2715 -22.2715 -22.2519 -22.2519 -22.0623 -22.0623
    -6.6958  -6.6758  -5.8422  -5.8318  -5.7603  -5.7498  -5.4570  -5.4561
    -4.5535  -4.5322   0.0476   0.0846   0.3905   0.4214   1.0057   1.0269
     1.4716   1.6632   2.2347   2.3598   2.3622   2.3784   2.7882   2.8117
     2.8449   2.8983   3.2409   3.2642   3.3072   3.4584   3.5985   3.6472
     3.7718   3.9946   6.4155   6.4563   6.4877   6.5813   6.9772   7.0425
     7.0506   7.0539

          k = 1.0162 0.1290 0.1485 ( 36524 PWs)   bands (ev):

   -44.1450 -44.1450 -22.2715 -22.2715 -22.2519 -22.2519 -22.0623 -22.0623
    -6.6922  -6.6780  -5.8566  -5.8484  -5.7476  -5.7414  -5.4487  -5.4479
    -4.5552  -4.5401  -0.0409  -0.0289   0.6186   0.6250   1.0243   1.0411
     1.4681   1.5825   1.9491   2.0076   2.3684   2.3829   2.6890   2.7895
     2.9619   3.0074   3.1278   3.2056   3.5330   3.6014   3.6935   3.7226
     4.0551   4.1321   5.8935   5.9271   6.4164   6.4957   6.9812   7.0075
     7.2634   7.2858

          k = 1.0162 0.1290-0.2971 ( 36516 PWs)   bands (ev):

   -44.1450 -44.1450 -22.2715 -22.2715 -22.2519 -22.2519 -22.0623 -22.0623
    -6.6844  -6.6844  -5.8651  -5.8651  -5.7368  -5.7368  -5.4401  -5.4401
    -4.5525  -4.5525  -0.0964  -0.0964   0.9152   0.9152   0.9643   0.9643
     1.5585   1.5585   1.6206   1.6206   2.3641   2.3641   2.7621   2.7621
     2.9811   2.9811   3.1506   3.1506   3.6169   3.6169   3.7785   3.7785
     4.5080   4.5080   5.3771   5.3771   6.3803   6.3803   7.0162   7.0162
     7.3380   7.3380

          k =-0.7622-0.3224 0.0000 ( 36511 PWs)   bands (ev):

   -44.1454 -44.1454 -22.2736 -22.2736 -22.2420 -22.2420 -22.0635 -22.0635
    -6.8475  -6.7300  -6.3899  -6.2763  -5.8787  -5.3268  -5.2516  -5.0716
    -4.6170  -4.5677   0.0186   0.1845   0.5946   1.0722   1.1408   1.2256
     1.4992   1.6617   1.9711   1.9772   2.3219   2.4352   2.4805   2.7993
     2.8273   3.1844   3.2894   3.4037   3.5897   3.6578   3.7442   3.8088
     3.8933   4.4997   5.7997   6.2105   6.3358   6.6829   6.7898   6.9297
     7.2003   7.5786

          k =-0.7622-0.3224 0.1485 ( 36492 PWs)   bands (ev):

   -44.1454 -44.1454 -22.2736 -22.2736 -22.2420 -22.2420 -22.0635 -22.0635
    -6.8298  -6.7456  -6.3872  -6.3184  -5.7856  -5.4241  -5.2013  -5.0909
    -4.6049  -4.5712   0.0704   0.3139   0.4838   0.9257   1.1174   1.1895
     1.5370   1.6484   1.7603   2.1827   2.2314   2.6192   2.7003   2.8280
     2.8863   3.1474   3.1891   3.3714   3.4795   3.6213   3.6587   3.8809
     3.9173   4.6537   5.4501   6.3064   6.5575   6.6468   6.7832   6.9588
     7.0386   7.4722

          k =-0.7622-0.3224-0.2971 ( 36508 PWs)   bands (ev):

   -44.1454 -44.1454 -22.2736 -22.2736 -22.2420 -22.2420 -22.0635 -22.0635
    -6.7868  -6.7868  -6.3686  -6.3686  -5.6011  -5.6011  -5.1401  -5.1401
    -4.5840  -4.5840   0.2397   0.2397   0.6570   0.6570   1.0458   1.0458
     1.5792   1.5792   2.0521   2.0521   2.4338   2.4338   2.8061   2.8061
     3.0056   3.0056   3.2796   3.2796   3.5824   3.5824   3.8234   3.8234
     4.1259   4.1259   5.9969   5.9969   6.3901   6.3901   6.9432   6.9432
     7.2996   7.2996

          k =-0.5081-0.2579 0.0000 ( 36480 PWs)   bands (ev):

   -44.1463 -44.1463 -22.2785 -22.2784 -22.2182 -22.2182 -22.0665 -22.0664
    -7.2521  -6.8852  -6.7380  -6.6395  -6.2219  -5.2426  -5.1093  -4.7403
    -4.6730  -4.4244   0.5522   0.6204   0.7032   1.2771   1.2907   1.5574
     1.6711   1.7738   2.0118   2.1237   2.2352   2.2916   2.3428   3.3349
     3.3629   3.3850   3.4821   3.5082   3.7390   3.8570   3.8860   4.0840
     4.5412   5.2351   5.4308   5.8569   6.0257   6.6556   6.6896   6.7918
     7.3431   7.5459

          k =-0.5081-0.2579 0.1485 ( 36485 PWs)   bands (ev):

   -44.1463 -44.1463 -22.2785 -22.2785 -22.2182 -22.2182 -22.0665 -22.0664
    -7.2184  -6.9831  -6.7002  -6.6463  -6.1034  -5.5039  -4.9259  -4.7077
    -4.6810  -4.4536   0.5141   0.7212   0.8146   1.0605   1.3067   1.4198
     1.5483   1.6476   2.0362   2.0739   2.3139   2.5764   2.8231   3.3198
     3.3527   3.3927   3.4892   3.5237   3.6424   3.7089   3.8305   4.1426
     4.3237   4.5631   6.0446   6.1045   6.2232   6.6613   6.6850   6.7110
     7.1867   7.4808

          k =-0.5081-0.2579-0.2971 ( 36478 PWs)   bands (ev):

   -44.1463 -44.1463 -22.2785 -22.2785 -22.2182 -22.2182 -22.0664 -22.0664
    -7.1221  -7.1221  -6.6666  -6.6666  -5.8300  -5.8300  -4.7928  -4.7928
    -4.5489  -4.5489   0.6092   0.6092   1.0765   1.0765   1.1770   1.1770
     1.4769   1.4769   2.0530   2.0530   2.7756   2.7756   3.1723   3.1723
     3.3688   3.3688   3.4351   3.4351   3.6893   3.6893   3.8135   3.8135
     4.2464   4.2464   6.2600   6.2600   6.6163   6.6163   6.7593   6.7593
     7.1045   7.1045

          k =-0.2541-0.1934 0.0000 ( 36410 PWs)   bands (ev):

   -44.1472 -44.1472 -22.2832 -22.2832 -22.1943 -22.1943 -22.0694 -22.0693
    -7.5781  -7.0635  -7.0435  -6.7653  -6.4224  -5.3210  -5.0624  -4.8498
    -4.7773  -3.9986   0.5291   0.9032   0.9195   1.2251   1.3606   1.4273
     1.9333   2.0236   2.2004   2.5045   2.5670   3.1286   3.3607   3.5945
     3.6321   3.7048   3.7637   3.8390   3.9060   4.1861   4.2145   4.2186
     4.4044   4.6432   5.7817   6.0040   6.3137   6.5996   6.6116   6.8426
     6.9962   7.0700

          k =-0.2541-0.1934 0.1485 ( 36427 PWs)   bands (ev):

   -44.1472 -44.1472 -22.2832 -22.2832 -22.1943 -22.1943 -22.0694 -22.0694
    -7.5403  -7.2576  -6.8897  -6.7753  -6.3136  -5.6367  -4.8926  -4.7946
    -4.6930  -4.0914   0.5633   0.9341   0.9927   1.0306   1.1819   1.5762
     1.8448   2.3038   2.4212   2.5139   2.5424   2.9152   3.2924   3.3500
     3.5684   3.6420   3.7383   3.8916   3.9721   4.0895   4.2118   4.2441
     4.6768   4.9679   5.7969   5.8733   6.1827   6.3297   6.5368   6.7013
     7.2066   7.2970

          k =-0.2541-0.1934-0.2971 ( 36422 PWs)   bands (ev):

   -44.1472 -44.1472 -22.2832 -22.2832 -22.1943 -22.1943 -22.0694 -22.0694
    -7.4299  -7.4299  -6.8095  -6.8095  -6.0213  -6.0213  -4.8369  -4.8369
    -4.3462  -4.3462   0.7094   0.7094   1.0536   1.0536   1.2604   1.2604
     2.2950   2.2950   2.5096   2.5096   2.6810   2.6810   3.1508   3.1508
     3.5467   3.5467   3.8072   3.8072   4.0439   4.0439   4.2414   4.2414
     5.1363   5.1363   5.7136   5.7136   6.0989   6.0989   6.5405   6.5405
     7.4108   7.4108

          k = 0.0000-0.1290 0.0000 ( 36417 PWs)   bands (ev):

   -44.1476 -44.1476 -22.2851 -22.2851 -22.1844 -22.1844 -22.0707 -22.0706
    -7.6971  -7.1500  -7.1441  -6.8066  -6.4781  -5.3606  -5.0620  -4.8894
    -4.8229  -3.8568   0.4361   0.7559   0.7658   1.0866   1.5309   1.5610
     2.4042   2.4326   2.6720   2.9258   2.9997   3.0204   3.1879   3.4568
     3.5411   3.6641   3.7957   4.0150   4.1561   4.2537   4.2745   4.6372
     5.0177   5.5024   5.6253   5.6954   5.8601   6.0491   6.3733   6.7987
     6.9483   7.2612

          k = 0.0000-0.1290 0.1485 ( 36419 PWs)   bands (ev):

   -44.1476 -44.1476 -22.2851 -22.2851 -22.1844 -22.1844 -22.0706 -22.0706
    -7.6584  -7.3654  -6.9575  -6.8180  -6.3779  -5.6919  -4.9074  -4.8364
    -4.6911  -3.9735   0.4844   0.7937   0.9236   1.0394   1.0788   1.9932
     2.1144   2.4319   2.6127   2.9488   2.9944   3.1294   3.3261   3.3660
     3.6671   3.7482   3.7867   3.9861   4.1022   4.2776   4.2921   4.6484
     4.8635   5.0322   5.7561   5.9479   6.0204   6.0471   6.5994   6.6807
     6.7785   7.2355

          k = 0.0000-0.1290-0.2971 ( 36464 PWs)   bands (ev):

   -44.1476 -44.1476 -22.2851 -22.2851 -22.1844 -22.1844 -22.0706 -22.0706
    -7.5446  -7.5446  -6.8584  -6.8584  -6.0893  -6.0893  -4.8690  -4.8690
    -4.2823  -4.2823   0.6842   0.6842   0.8994   0.8994   1.4203   1.4203
     2.5095   2.5095   2.6921   2.6921   2.9778   2.9778   3.3842   3.3842
     3.8118   3.8118   3.9388   3.9388   4.2409   4.2409   4.4251   4.4251
     4.7052   4.7052   5.9549   5.9549   6.2484   6.2484   6.3876   6.3876
     7.1157   7.1157

          k = 1.0162 0.0000 0.0000 ( 36499 PWs)   bands (ev):

   -44.1450 -44.1450 -22.2715 -22.2715 -22.2519 -22.2519 -22.0623 -22.0623
    -6.6958  -6.6758  -5.8418  -5.8322  -5.7603  -5.7498  -5.4570  -5.4560
    -4.5535  -4.5322   0.0432   0.0892   0.3867   0.4254   1.0028   1.0313
     1.4775   1.6538   2.2367   2.3475   2.3595   2.3820   2.7880   2.8072
     2.8699   2.8986   3.2349   3.2811   3.2935   3.4469   3.6287   3.6353
     3.7475   4.0056   6.4108   6.4619   6.4833   6.5866   6.9952   7.0383
     7.0446   7.0561

          k = 1.0162 0.0000 0.1485 ( 36485 PWs)   bands (ev):

   -44.1450 -44.1450 -22.2715 -22.2715 -22.2519 -22.2519 -22.0623 -22.0623
    -6.6922  -6.6780  -5.8564  -5.8486  -5.7475  -5.7415  -5.4489  -5.4477
    -4.5552  -4.5401  -0.0425  -0.0276   0.6188   0.6254   1.0326   1.0336
     1.4732   1.5782   1.9697   1.9828   2.3656   2.3767   2.6740   2.8080
     2.9795   3.0503   3.0796   3.2044   3.5277   3.6350   3.6887   3.6914
     4.0462   4.1456   5.8885   5.9347   6.4138   6.4981   6.9896   7.0045
     7.2725   7.2770

          k = 1.0162 0.0000-0.2971 ( 36514 PWs)   bands (ev):

   -44.1450 -44.1450 -22.2715 -22.2715 -22.2519 -22.2519 -22.0623 -22.0623
    -6.6844  -6.6844  -5.8651  -5.8651  -5.7368  -5.7368  -5.4401  -5.4401
    -4.5525  -4.5525  -0.0966  -0.0966   0.9141   0.9141   0.9664   0.9664
     1.5583   1.5583   1.6220   1.6220   2.3546   2.3546   2.7509   2.7509
     3.0612   3.0612   3.0892   3.0892   3.6227   3.6227   3.7718   3.7718
     4.5084   4.5084   5.3791   5.3791   6.3799   6.3799   7.0183   7.0183
     7.3382   7.3382

          k = 1.2703 0.0645 0.0000 ( 36468 PWs)   bands (ev):

   -44.1454 -44.1454 -22.2736 -22.2736 -22.2420 -22.2420 -22.0635 -22.0635
    -6.8357  -6.7343  -6.3991  -6.2741  -5.8794  -5.3310  -5.2508  -5.0720
    -4.6202  -4.5634   0.0241   0.1739   0.5744   1.0596   1.1528   1.2125
     1.5036   1.7082   1.9586   2.0256   2.3750   2.4314   2.4993   2.8256
     2.8346   3.1196   3.3049   3.4634   3.5378   3.5575   3.7396   3.8551
     3.8784   4.4426   5.8019   6.2092   6.3693   6.6245   6.8261   6.9862
     7.1648   7.5838

          k = 1.2703 0.0645 0.1485 ( 36490 PWs)   bands (ev):

   -44.1454 -44.1454 -22.2736 -22.2736 -22.2420 -22.2420 -22.0635 -22.0635
    -6.8194  -6.7465  -6.3961  -6.3203  -5.7848  -5.4243  -5.2036  -5.0919
    -4.6071  -4.5681   0.0699   0.3109   0.4729   0.9116   1.1279   1.1732
     1.5716   1.6387   1.7516   2.2603   2.3041   2.6069   2.7035   2.8412
     2.8977   3.1221   3.1863   3.3723   3.4297   3.5734   3.7379   3.8261
     3.8699   4.6531   5.4266   6.3319   6.5273   6.6496   6.7772   6.9966
     7.0536   7.4431

          k = 1.2703 0.0645-0.2971 ( 36480 PWs)   bands (ev):

   -44.1454 -44.1454 -22.2736 -22.2736 -22.2420 -22.2420 -22.0635 -22.0635
    -6.7809  -6.7809  -6.3756  -6.3756  -5.5997  -5.5997  -5.1422  -5.1422
    -4.5836  -4.5836   0.2346   0.2346   0.6618   0.6618   1.0290   1.0290
     1.5839   1.5839   2.0802   2.0802   2.4963   2.4963   2.8201   2.8201
     3.0084   3.0084   3.2069   3.2069   3.5851   3.5851   3.8155   3.8155
     4.1098   4.1098   5.9754   5.9754   6.3872   6.3872   6.9939   6.9939
     7.2581   7.2581

          k =-0.5081-0.3869 0.0000 ( 36463 PWs)   bands (ev):

   -44.1463 -44.1463 -22.2785 -22.2785 -22.2182 -22.2182 -22.0665 -22.0664
    -7.2373  -6.8830  -6.7356  -6.6536  -6.2327  -5.2410  -5.1174  -4.7445
    -4.6658  -4.4255   0.5591   0.6064   0.6966   1.2875   1.4220   1.5966
     1.6617   1.7654   1.9967   2.1648   2.2685   2.2919   2.3439   3.2421
     3.3654   3.4000   3.4133   3.5336   3.7007   3.7976   3.8321   4.0753
     4.5296   5.2289   5.4216   5.7687   6.0876   6.7066   6.7685   6.8079
     7.2573   7.5422

          k =-0.5081-0.3869 0.1485 ( 36477 PWs)   bands (ev):

   -44.1463 -44.1463 -22.2785 -22.2785 -22.2182 -22.2182 -22.0665 -22.0664
    -7.2039  -6.9730  -6.7102  -6.6614  -6.1083  -5.5027  -4.9380  -4.7061
    -4.6786  -4.4516   0.5172   0.7265   0.8021   1.0572   1.3914   1.4259
     1.5960   1.6872   2.0396   2.0758   2.3035   2.6207   2.8412   3.2069
     3.3606   3.3938   3.4329   3.5243   3.6489   3.6924   3.7752   4.1093
     4.2606   4.5648   5.9903   6.1170   6.2155   6.6003   6.7791   6.8315
     7.1081   7.4824

          k =-0.5081-0.3869-0.2971 ( 36492 PWs)   bands (ev):

   -44.1463 -44.1463 -22.2785 -22.2785 -22.2182 -22.2182 -22.0664 -22.0664
    -7.1085  -7.1085  -6.6822  -6.6822  -5.8298  -5.8298  -4.8021  -4.8021
    -4.5430  -4.5430   0.6174   0.6174   1.0751   1.0751   1.1593   1.1593
     1.5801   1.5801   2.0417   2.0417   2.8057   2.8057   3.1841   3.1841
     3.3156   3.3156   3.4001   3.4001   3.6812   3.6812   3.7976   3.7976
     4.1899   4.1899   6.2231   6.2231   6.6494   6.6494   6.7606   6.7606
     7.1190   7.1190

          k =-0.2541-0.3224 0.0000 ( 36485 PWs)   bands (ev):

   -44.1472 -44.1472 -22.2832 -22.2832 -22.1943 -22.1943 -22.0694 -22.0693
    -7.5637  -7.0525  -7.0411  -6.7807  -6.4448  -5.3205  -5.0733  -4.8549
    -4.7679  -4.0001   0.5553   0.9166   1.0445   1.2743   1.4236   1.4326
     1.9693   2.0563   2.2015   2.4261   2.5183   3.2436   3.2592   3.4121
     3.5813   3.6408   3.7365   3.8688   3.8807   4.0974   4.1705   4.1837
     4.3909   4.5960   5.8634   6.0227   6.3614   6.5673   6.6974   6.8620
     6.9299   7.0121

          k =-0.2541-0.3224 0.1485 ( 36445 PWs)   bands (ev):

   -44.1472 -44.1472 -22.2832 -22.2832 -22.1943 -22.1943 -22.0694 -22.0694
    -7.5261  -7.2452  -6.8962  -6.7911  -6.3271  -5.6366  -4.9138  -4.7904
    -4.6844  -4.0912   0.5838   0.9643   1.0251   1.1459   1.2591   1.6006
     1.8553   2.3033   2.4345   2.4465   2.5281   2.8941   3.3295   3.3612
     3.4009   3.5305   3.7158   3.8829   3.9123   4.0690   4.1280   4.1855
     4.6911   4.9359   5.7801   5.9019   6.1755   6.3351   6.6370   6.7258
     7.1567   7.2836

          k =-0.2541-0.3224-0.2971 ( 36442 PWs)   bands (ev):

   -44.1472 -44.1472 -22.2832 -22.2832 -22.1943 -22.1943 -22.0694 -22.0694
    -7.4161  -7.4161  -6.8244  -6.8244  -6.0248  -6.0248  -4.8449  -4.8449
    -4.3422  -4.3422   0.7219   0.7219   1.1814   1.1814   1.2727   1.2727
     2.2940   2.2940   2.4657   2.4657   2.6791   2.6791   3.1984   3.1984
     3.3822   3.3822   3.7927   3.7927   4.0204   4.0204   4.1680   4.1680
     5.1421   5.1421   5.6696   5.6696   6.0752   6.0752   6.6468   6.6468
     7.3788   7.3788

          k = 0.0000-0.2579 0.0000 ( 36445 PWs)   bands (ev):

   -44.1476 -44.1476 -22.2851 -22.2851 -22.1844 -22.1844 -22.0707 -22.0706
    -7.6844  -7.1478  -7.1313  -6.8215  -6.5014  -5.3609  -5.0723  -4.8968
    -4.8117  -3.8583   0.4787   0.7789   0.8700   1.1308   1.5860   1.5874
     2.4109   2.4354   2.6899   2.9223   2.9924   3.0491   3.2893   3.2934
     3.3283   3.6376   3.6895   3.9750   4.1159   4.1474   4.1561   4.6387
     4.9963   5.4422   5.6919   5.7131   5.8980   6.1165   6.4682   6.7260
     6.9494   7.2223

          k = 0.0000-0.2579 0.1485 ( 36452 PWs)   bands (ev):

   -44.1476 -44.1476 -22.2851 -22.2851 -22.1844 -22.1844 -22.0706 -22.0706
    -7.6458  -7.3542  -6.9607  -6.8327  -6.3935  -5.6927  -4.9289  -4.8309
    -4.6834  -3.9735   0.5189   0.8979   0.9634   1.0876   1.1101   2.0137
     2.1504   2.4393   2.6266   2.9461   2.9880   3.1316   3.2293   3.2690
     3.6314   3.6622   3.7252   3.9213   4.0974   4.1535   4.1778   4.6496
     4.8528   5.0162   5.7860   5.9578   6.0545   6.0795   6.5641   6.7391
     6.7806   7.2015

          k = 0.0000-0.2579-0.2971 ( 36454 PWs)   bands (ev):

   -44.1476 -44.1476 -22.2851 -22.2851 -22.1844 -22.1844 -22.0706 -22.0706
    -7.5324  -7.5324  -6.8709  -6.8709  -6.0943  -6.0943  -4.8761  -4.8761
    -4.2792  -4.2792   0.7169   0.7169   0.9879   0.9879   1.4420   1.4420
     2.5191   2.5191   2.7123   2.7123   2.9735   2.9735   3.2463   3.2463
     3.7710   3.7710   3.9238   3.9238   4.1025   4.1025   4.4159   4.4159
     4.7038   4.7038   5.9390   5.9390   6.2893   6.2893   6.3924   6.3924
     7.1031   7.1031

          k = 1.5243 0.0000 0.0000 ( 36439 PWs)   bands (ev):

   -44.1463 -44.1463 -22.2785 -22.2785 -22.2182 -22.2182 -22.0665 -22.0664
    -7.2308  -6.8826  -6.7346  -6.6591  -6.2374  -5.2403  -5.1208  -4.7457
    -4.6634  -4.4259   0.5636   0.6008   0.6908   1.2916   1.5412   1.5717
     1.6343   1.7605   2.0080   2.1846   2.2517   2.3111   2.3411   3.1926
     3.3458   3.3768   3.4261   3.6188   3.6815   3.6900   3.8248   4.0909
     4.5242   5.2237   5.4183   5.7328   6.1157   6.6704   6.8275   6.8547
     7.2104   7.5730

          k = 1.5243 0.0000 0.1485 ( 36476 PWs)   bands (ev):

   -44.1463 -44.1463 -22.2785 -22.2785 -22.2182 -22.2182 -22.0665 -22.0664
    -7.1975  -6.9688  -6.7146  -6.6677  -6.1103  -5.5021  -4.9429  -4.7058
    -4.6774  -4.4507   0.5187   0.7281   0.7962   1.0560   1.4140   1.4544
     1.5977   1.7153   2.0496   2.0723   2.2969   2.6310   2.8521   3.1579
     3.3187   3.4062   3.4170   3.5947   3.6334   3.6942   3.7063   4.1270
     4.2160   4.5655   5.9634   6.1263   6.2137   6.5712   6.8229   6.8963
     7.0594   7.4939

          k = 1.5243 0.0000-0.2971 ( 36508 PWs)   bands (ev):

   -44.1463 -44.1463 -22.2785 -22.2785 -22.2182 -22.2182 -22.0664 -22.0664
    -7.1026  -7.1026  -6.6890  -6.6890  -5.8296  -5.8296  -4.8058  -4.8058
    -4.5406  -4.5406   0.6207   0.6207   1.0743   1.0743   1.1532   1.1532
     1.6295   1.6295   2.0326   2.0326   2.8206   2.8206   3.1490   3.1490
     3.3183   3.3183   3.4015   3.4015   3.6722   3.6722   3.7911   3.7911
     4.1671   4.1671   6.2082   6.2082   6.6444   6.6444   6.7758   6.7758
     7.1306   7.1306

          k =-0.2541-0.4514 0.0000 ( 36444 PWs)   bands (ev):

   -44.1472 -44.1472 -22.2832 -22.2832 -22.1943 -22.1943 -22.0694 -22.0693
    -7.5531  -7.0453  -7.0394  -6.7905  -6.4616  -5.3201  -5.0813  -4.8563
    -4.7633  -4.0011   0.5643   0.9269   1.1590   1.3052   1.4191   1.5207
     2.0079   2.0820   2.1954   2.3373   2.4425   3.1794   3.2809   3.3450
     3.5909   3.5928   3.7504   3.7904   3.8796   4.0586   4.1436   4.1439
     4.4230   4.5438   5.9310   6.0319   6.3841   6.5388   6.7548   6.8544
     6.8755   6.9995

          k =-0.2541-0.4514 0.1485 ( 36461 PWs)   bands (ev):

   -44.1472 -44.1472 -22.2832 -22.2832 -22.1943 -22.1943 -22.0694 -22.0694
    -7.5156  -7.2361  -6.9020  -6.8019  -6.3368  -5.6365  -4.9271  -4.7887
    -4.6789  -4.0910   0.5899   0.9791   1.0357   1.2804   1.3311   1.6222
     1.8735   2.2922   2.3486   2.4317   2.5132   2.8824   3.2646   3.2809
     3.3953   3.5449   3.7487   3.8475   3.8658   3.9838   4.1227   4.1502
     4.7189   4.9021   5.7714   5.9245   6.1833   6.2991   6.7049   6.7425
     7.1309   7.2729

          k =-0.2541-0.4514-0.2971 ( 36490 PWs)   bands (ev):

   -44.1472 -44.1472 -22.2832 -22.2832 -22.1943 -22.1943 -22.0694 -22.0694
    -7.4059  -7.4059  -6.8355  -6.8355  -6.0271  -6.0271  -4.8506  -4.8506
    -4.3395  -4.3395   0.7247   0.7247   1.2779   1.2779   1.3078   1.3078
     2.2858   2.2858   2.4074   2.4074   2.6781   2.6781   3.2170   3.2170
     3.2834   3.2834   3.7975   3.7975   3.9913   3.9913   4.1291   4.1291
     5.1479   5.1479   5.6435   5.6435   6.0518   6.0518   6.7106   6.7106
     7.3591   7.3591

          k = 0.0000-0.3869 0.0000 ( 36477 PWs)   bands (ev):

   -44.1476 -44.1476 -22.2851 -22.2851 -22.1844 -22.1844 -22.0707 -22.0706
    -7.6711  -7.1456  -7.1188  -6.8348  -6.5266  -5.3612  -5.0834  -4.8993
    -4.8049  -3.8599   0.5021   0.7927   1.0263   1.1946   1.6095   1.6537
     2.4178   2.4366   2.7090   2.9188   2.9844   3.0342   3.0615   3.0955
     3.4324   3.6105   3.6968   3.9336   3.9589   4.0113   4.1559   4.6404
     4.9753   5.4086   5.7309   5.7670   5.9400   6.1564   6.5339   6.6263
     6.9503   7.1964

          k = 0.0000-0.3869 0.1485 ( 36452 PWs)   bands (ev):

   -44.1476 -44.1476 -22.2851 -22.2851 -22.1844 -22.1844 -22.0706 -22.0706
    -7.6326  -7.3426  -6.9653  -6.8467  -6.4093  -5.6933  -4.9471  -4.8279
    -4.6764  -3.9736   0.5337   0.9958   1.0043   1.1520   1.2045   2.0374
     2.1834   2.4469   2.6411   2.9436   2.9519   2.9809   3.0002   3.3109
     3.6006   3.6687   3.7018   3.9092   4.0142   4.0574   4.0922   4.6512
     4.8422   5.0096   5.8257   5.9681   6.0826   6.0842   6.5168   6.7743
     6.7828   7.1701

          k = 0.0000-0.3869-0.2971 ( 36454 PWs)   bands (ev):

   -44.1476 -44.1476 -22.2851 -22.2851 -22.1844 -22.1844 -22.0706 -22.0706
    -7.5196  -7.5196  -6.8842  -6.8842  -6.0989  -6.0989  -4.8832  -4.8832
    -4.2761  -4.2761   0.7241   0.7241   1.1306   1.1306   1.4652   1.4652
     2.5290   2.5290   2.6971   2.6971   2.9690   2.9690   3.0628   3.0628
     3.7902   3.7902   3.9087   3.9087   3.9879   3.9879   4.4012   4.4012
     4.7026   4.7026   5.9161   5.9161   6.3167   6.3167   6.3974   6.3974
     7.0774   7.0774

          k =-2.0325 0.0000 0.0000 ( 36452 PWs)   bands (ev):

   -44.1476 -44.1476 -22.2851 -22.2851 -22.1844 -22.1844 -22.0707 -22.0706
    -7.6654  -7.1447  -7.1139  -6.8397  -6.5377  -5.3613  -5.0881  -4.8994
    -4.8028  -3.8605   0.5067   0.7986   1.1393   1.1895   1.6188   1.6951
     2.4207   2.4362   2.7174   2.8899   2.9173   2.9581   2.9807   3.1214
     3.5362   3.5991   3.7155   3.8130   3.9504   3.9506   4.1558   4.6412
     4.9668   5.3990   5.7384   5.8010   5.9609   6.1684   6.5548   6.5755
     6.9506   7.1883

          k =-2.0325 0.0000 0.1485 ( 36456 PWs)   bands (ev):

   -44.1476 -44.1476 -22.2851 -22.2851 -22.1844 -22.1844 -22.0706 -22.0706
    -7.6269  -7.3377  -6.9677  -6.8523  -6.4160  -5.6935  -4.9541  -4.8271
    -4.6737  -3.9736   0.5352   1.0081   1.0371   1.1939   1.2698   2.0479
     2.1974   2.4501   2.6473   2.8354   2.8880   2.9427   2.9778   3.3622
     3.5801   3.6920   3.7077   3.8885   3.9531   4.0091   4.0900   4.6519
     4.8379   5.0086   5.8466   5.9725   6.0771   6.0938   6.4943   6.7833
     6.7836   7.1587

          k =-2.0325 0.0000-0.2971 ( 36460 PWs)   bands (ev):

   -44.1476 -44.1476 -22.2851 -22.2851 -22.1844 -22.1844 -22.0706 -22.0706
    -7.5141  -7.5141  -6.8899  -6.8899  -6.1008  -6.1008  -4.8862  -4.8862
    -4.2749  -4.2749   0.7234   0.7234   1.2066   1.2066   1.4759   1.4759
     2.5332   2.5332   2.6550   2.6550   2.9671   2.9671   3.0051   3.0051
     3.8070   3.8070   3.9023   3.9023   3.9409   3.9409   4.3956   4.3956
     4.7022   4.7022   5.9048   5.9048   6.3253   6.3253   6.3996   6.3996
     7.0651   7.0651

     the Fermi energy is     5.3792 ev

!    total energy              =   -4240.94686589 Ry

     total all-electron energy =   -150287.640561 Ry
     estimated scf accuracy    <          5.6E-11 Ry
     smearing contrib. (-TS)   =      -0.00001298 Ry
     internal energy E=F+TS    =   -4240.94685291 Ry

     The total energy is F=E-TS. E is the sum of the following terms:
     one-electron contribution =    -165.69650398 Ry
     hartree contribution      =     116.32382364 Ry
     xc contribution           =    -201.44400854 Ry
     ewald contribution        =    -222.61796376 Ry
     one-center paw contrib.   =   -3767.51220026 Ry

     convergence has been achieved in  18 iterations

     Forces acting on atoms (cartesian axes, Ry/au):

     atom    1 type  1   force =     0.00000000   -0.01248551    0.00000000
     atom    2 type  1   force =     0.00000000    0.01248551    0.00000000
     atom    3 type  2   force =     0.00000000    0.00048900    0.00000000
     atom    4 type  2   force =     0.00000000   -0.00048900    0.00000000
     atom    5 type  2   force =     0.00000000    0.00262509    0.00047901
     atom    6 type  2   force =     0.00000000   -0.00262509   -0.00047901
     atom    7 type  2   force =     0.00000000    0.00262509   -0.00047901
     atom    8 type  2   force =     0.00000000   -0.00262509    0.00047901
     atom    9 type  2   force =     0.00000000    0.01470367    0.01376163
     atom   10 type  2   force =     0.00000000   -0.01470367   -0.01376163
     atom   11 type  2   force =     0.00000000    0.01470367   -0.01376163
     atom   12 type  2   force =     0.00000000   -0.01470367    0.01376163

     Total force =     0.044306     Total SCF correction =     0.000012


     Computing stress (Cartesian axis) and pressure

          total   stress  (Ry/bohr**3)                   (kbar)     P=       -3.48
  -0.00001990  -0.00000000   0.00000000           -2.93       -0.00        0.00
  -0.00000000  -0.00002189   0.00000000           -0.00       -3.22        0.00
   0.00000000   0.00000000  -0.00002909            0.00        0.00       -4.28

 
     init_run     :     20.74s CPU     21.25s WALL (       1 calls)
     electrons    :   1053.01s CPU   1065.39s WALL (       1 calls)
     forces       :      7.10s CPU      7.33s WALL (       1 calls)
     stress       :     46.11s CPU     46.74s WALL (       1 calls)

     Called by init_run:
     wfcinit      :     16.02s CPU     16.22s WALL (       1 calls)
     potinit      :      1.50s CPU      1.55s WALL (       1 calls)
     hinit0       :      1.85s CPU      1.89s WALL (       1 calls)

     Called by electrons:
     c_bands      :    875.03s CPU    879.17s WALL (      19 calls)
     sum_band     :    149.22s CPU    153.66s WALL (      19 calls)
     v_of_rho     :      6.20s CPU      6.51s WALL (      19 calls)
     newd         :     15.92s CPU     19.54s WALL (      19 calls)
     PAW_pot      :      6.60s CPU      6.61s WALL (      19 calls)
     mix_rho      :      0.95s CPU      0.99s WALL (      19 calls)

     Called by c_bands:
     init_us_2    :     12.38s CPU     12.43s WALL (    2583 calls)
     cegterg      :    794.86s CPU    798.42s WALL (    1197 calls)

     Called by *egterg:
     cdiaghg      :     28.37s CPU     28.43s WALL (    8365 calls)
     h_psi        :    614.17s CPU    617.59s WALL (    8491 calls)
     s_psi        :     48.79s CPU     48.86s WALL (    8491 calls)
     g_psi        :      2.15s CPU      2.16s WALL (    7231 calls)

     Called by h_psi:
     h_psi:calbec :     41.98s CPU     42.06s WALL (    8491 calls)
     vloc_psi     :    519.92s CPU    523.12s WALL (    8491 calls)
     add_vuspsi   :     48.68s CPU     48.75s WALL (    8491 calls)

     General routines
     calbec       :     54.74s CPU     54.86s WALL (   10003 calls)
     fft          :      3.81s CPU      3.94s WALL (     271 calls)
     ffts         :      0.09s CPU      0.09s WALL (      38 calls)
     fftw         :    470.55s CPU    473.36s WALL (  440082 calls)
     interpolate  :      0.35s CPU      0.35s WALL (      19 calls)
 
     Parallel routines
 
     PWSCF        :  18m47.21s CPU  19m 1.03s WALL

 
   This run was terminated on:  15:36:55  19Nov2021            

=------------------------------------------------------------------------------=
   JOB DONE.
=------------------------------------------------------------------------------=
