
     Program PWSCF v.6.8 starts on 19Nov2021 at 15:24:26 

     This program is part of the open-source Quantum ESPRESSO suite
     for quantum simulation of materials; please cite
         "P. Giannozzi et al., J. Phys.:Condens. Matter 21 395502 (2009);
         "P. Giannozzi et al., J. Phys.:Condens. Matter 29 465901 (2017);
         "P. Giannozzi et al., J. Chem. Phys. 152 154105 (2020);
          URL http://www.quantum-espresso.org", 
     in publications or presentations arising from this work. More details at
     http://www.quantum-espresso.org/quote

     Parallel version (MPI), running on    10 processors

     MPI processes distributed on     1 nodes
     R & G space division:  proc/nbgrp/npool/nimage =      10
     80737 MiB available memory on the printing compute node when the environment starts
 
     Waiting for input...
     Reading input from standard input

     Current dimensions of program PWSCF are:
     Max number of different atomic species (ntypx) = 10
     Max number of k-points (npk) =  40000
     Max angular momentum in pseudopotentials (lmaxx) =  4
     file Zr.pbe-spn-kjpaw_psl.1.0.0.UPF: wavefunction(s)  4S 4P renormalized
     file Te.pbe-n-kjpaw_psl.1.0.0.UPF: wavefunction(s)  5S 5P renormalized
     Message from routine setup:
     using ibrav=0 with symmetry is DISCOURAGED, use correct ibrav instead

     Subspace diagonalization in iterative solution of the eigenvalue problem:
     a serial algorithm will be used

 
     Parallelization info
     --------------------
     sticks:   dense  smooth     PW     G-vecs:    dense   smooth      PW
     Min         734     293     87               115340    29174    4753
     Max         735     295     88               115345    29176    4760
     Sum        7345    2937    873              1153415   291749   47557
 
     Using Slab Decomposition
 


     bravais-lattice index     =            0
     lattice parameter (alat)  =      15.5510  a.u.
     unit-cell volume          =    3018.5011 (a.u.)^3
     number of atoms/cell      =           12
     number of atomic types    =            2
     number of electrons       =        84.00
     number of Kohn-Sham states=           50
     kinetic-energy cutoff     =      80.0000  Ry
     charge density cutoff     =     800.0000  Ry
     scf convergence threshold =      1.0E-10
     mixing beta               =       0.7000
     number of iterations used =            8  plain     mixing
     Exchange-correlation= SLA  PW   PBX  PBC
                           (   1   4   3   4   0   0   0)

     celldm(1)=  15.551040  celldm(2)=   0.000000  celldm(3)=   0.000000
     celldm(4)=   0.000000  celldm(5)=   0.000000  celldm(6)=   0.000000

     crystal axes: (cart. coord. in units of alat)
               a(1) = (   0.246007  -0.969268   0.000000 )  
               a(2) = (   0.246007   0.969268   0.000000 )  
               a(3) = (   0.000000   0.000000   1.683031 )  

     reciprocal axes: (cart. coord. in units 2 pi/alat)
               b(1) = (  2.032465 -0.515853  0.000000 )  
               b(2) = (  2.032465  0.515853  0.000000 )  
               b(3) = (  0.000000  0.000000  0.594166 )  


     PseudoPot. # 1 for Zr read from file:
     pseudo/Zr.pbe-spn-kjpaw_psl.1.0.0.UPF
     MD5 check sum: 02112c41713a0468aff2bb39ef194e36
     Pseudo is Projector augmented-wave + core cor, Zval = 12.0
     Generated using &quot;atomic&quot; code by A. Dal Corso  v.6.2.2
     Shape of augmentation charge: PSQ
     Using radial grid of 1225 points,  6 beta functions with: 
                l(1) =   0
                l(2) =   0
                l(3) =   1
                l(4) =   1
                l(5) =   2
                l(6) =   2
     Q(r) pseudized with 0 coefficients 


     PseudoPot. # 2 for Te read from file:
     pseudo/Te.pbe-n-kjpaw_psl.1.0.0.UPF
     MD5 check sum: 66247bff2bd9dbf220fbb0bf5ab56e9d
     Pseudo is Projector augmented-wave + core cor, Zval =  6.0
     Generated using &quot;atomic&quot; code by A. Dal Corso  v.6.3
     Shape of augmentation charge: PSQ
     Using radial grid of 1245 points,  6 beta functions with: 
                l(1) =   0
                l(2) =   0
                l(3) =   1
                l(4) =   1
                l(5) =   2
                l(6) =   2
     Q(r) pseudized with 0 coefficients 


     atomic species   valence    mass     pseudopotential
        Zr            12.00    91.22000     Zr( 1.00)
        Te             6.00   127.60000     Te( 1.00)

      8 Sym. Ops., with inversion, found ( 4 have fractional translation)



   Cartesian axes

     site n.     atom                  positions (alat units)
         1           Zr  tau(   1) = (   0.0000000   0.6136148   0.4207578  )
         2           Zr  tau(   2) = (   0.2460067   0.3556533   1.2622733  )
         3           Te  tau(   3) = (   0.2460067   0.3344093   0.4207578  )
         4           Te  tau(   4) = (   0.0000000   0.6348588   1.2622733  )
         5           Te  tau(   5) = (   0.2460067   0.8061808   0.2495753  )
         6           Te  tau(   6) = (   0.0000000   0.1630873   1.4334557  )
         7           Te  tau(   7) = (   0.2460067   0.8061808   0.5919402  )
         8           Te  tau(   8) = (   0.0000000   0.1630873   1.0910909  )
         9           Te  tau(   9) = (   0.0000000   0.4008643   0.7174991  )
        10           Te  tau(  10) = (   0.2460067   0.5684038   0.9655320  )
        11           Te  tau(  11) = (   0.0000000   0.4008643   0.1240164  )
        12           Te  tau(  12) = (   0.2460067   0.5684038   1.5590146  )

     number of k points=    63  Methfessel-Paxton smearing, width (Ry)=  0.0030
                       cart. coord. in units 2pi/alat
        k(    1) = (   0.0000000   0.0000000   0.0000000), wk =   0.0078125
        k(    2) = (   0.0000000   0.0000000   0.1485415), wk =   0.0156250
        k(    3) = (   0.0000000   0.0000000  -0.2970830), wk =   0.0078125
        k(    4) = (   0.2540581   0.0644816   0.0000000), wk =   0.0312500
        k(    5) = (   0.2540581   0.0644816   0.1485415), wk =   0.0625000
        k(    6) = (   0.2540581   0.0644816  -0.2970830), wk =   0.0312500
        k(    7) = (   0.5081162   0.1289633   0.0000000), wk =   0.0312500
        k(    8) = (   0.5081162   0.1289633   0.1485415), wk =   0.0625000
        k(    9) = (   0.5081162   0.1289633  -0.2970830), wk =   0.0312500
        k(   10) = (   0.7621743   0.1934449   0.0000000), wk =   0.0312500
        k(   11) = (   0.7621743   0.1934449   0.1485415), wk =   0.0625000
        k(   12) = (   0.7621743   0.1934449  -0.2970830), wk =   0.0312500
        k(   13) = (  -1.0162324  -0.2579266   0.0000000), wk =   0.0156250
        k(   14) = (  -1.0162324  -0.2579266   0.1485415), wk =   0.0312500
        k(   15) = (  -1.0162324  -0.2579266  -0.2970830), wk =   0.0156250
        k(   16) = (   0.5081162   0.0000000   0.0000000), wk =   0.0156250
        k(   17) = (   0.5081162   0.0000000   0.1485415), wk =   0.0312500
        k(   18) = (   0.5081162   0.0000000  -0.2970830), wk =   0.0156250
        k(   19) = (   0.7621743   0.0644816   0.0000000), wk =   0.0312500
        k(   20) = (   0.7621743   0.0644816   0.1485415), wk =   0.0625000
        k(   21) = (   0.7621743   0.0644816  -0.2970830), wk =   0.0312500
        k(   22) = (   1.0162324   0.1289633   0.0000000), wk =   0.0312500
        k(   23) = (   1.0162324   0.1289633   0.1485415), wk =   0.0625000
        k(   24) = (   1.0162324   0.1289633  -0.2970830), wk =   0.0312500
        k(   25) = (  -0.7621743  -0.3224082   0.0000000), wk =   0.0312500
        k(   26) = (  -0.7621743  -0.3224082   0.1485415), wk =   0.0625000
        k(   27) = (  -0.7621743  -0.3224082  -0.2970830), wk =   0.0312500
        k(   28) = (  -0.5081162  -0.2579266   0.0000000), wk =   0.0312500
        k(   29) = (  -0.5081162  -0.2579266   0.1485415), wk =   0.0625000
        k(   30) = (  -0.5081162  -0.2579266  -0.2970830), wk =   0.0312500
        k(   31) = (  -0.2540581  -0.1934449   0.0000000), wk =   0.0312500
        k(   32) = (  -0.2540581  -0.1934449   0.1485415), wk =   0.0625000
        k(   33) = (  -0.2540581  -0.1934449  -0.2970830), wk =   0.0312500
        k(   34) = (   0.0000000  -0.1289633   0.0000000), wk =   0.0156250
        k(   35) = (   0.0000000  -0.1289633   0.1485415), wk =   0.0312500
        k(   36) = (   0.0000000  -0.1289633  -0.2970830), wk =   0.0156250
        k(   37) = (   1.0162324   0.0000000   0.0000000), wk =   0.0156250
        k(   38) = (   1.0162324   0.0000000   0.1485415), wk =   0.0312500
        k(   39) = (   1.0162324   0.0000000  -0.2970830), wk =   0.0156250
        k(   40) = (   1.2702905   0.0644816   0.0000000), wk =   0.0312500
        k(   41) = (   1.2702905   0.0644816   0.1485415), wk =   0.0625000
        k(   42) = (   1.2702905   0.0644816  -0.2970830), wk =   0.0312500
        k(   43) = (  -0.5081162  -0.3868899   0.0000000), wk =   0.0312500
        k(   44) = (  -0.5081162  -0.3868899   0.1485415), wk =   0.0625000
        k(   45) = (  -0.5081162  -0.3868899  -0.2970830), wk =   0.0312500
        k(   46) = (  -0.2540581  -0.3224082   0.0000000), wk =   0.0312500
        k(   47) = (  -0.2540581  -0.3224082   0.1485415), wk =   0.0625000
        k(   48) = (  -0.2540581  -0.3224082  -0.2970830), wk =   0.0312500
        k(   49) = (   0.0000000  -0.2579266   0.0000000), wk =   0.0156250
        k(   50) = (   0.0000000  -0.2579266   0.1485415), wk =   0.0312500
        k(   51) = (   0.0000000  -0.2579266  -0.2970830), wk =   0.0156250
        k(   52) = (   1.5243485   0.0000000   0.0000000), wk =   0.0156250
        k(   53) = (   1.5243485   0.0000000   0.1485415), wk =   0.0312500
        k(   54) = (   1.5243485   0.0000000  -0.2970830), wk =   0.0156250
        k(   55) = (  -0.2540581  -0.4513715   0.0000000), wk =   0.0312500
        k(   56) = (  -0.2540581  -0.4513715   0.1485415), wk =   0.0625000
        k(   57) = (  -0.2540581  -0.4513715  -0.2970830), wk =   0.0312500
        k(   58) = (   0.0000000  -0.3868899   0.0000000), wk =   0.0156250
        k(   59) = (   0.0000000  -0.3868899   0.1485415), wk =   0.0312500
        k(   60) = (   0.0000000  -0.3868899  -0.2970830), wk =   0.0156250
        k(   61) = (  -2.0324647   0.0000000   0.0000000), wk =   0.0078125
        k(   62) = (  -2.0324647   0.0000000   0.1485415), wk =   0.0156250
        k(   63) = (  -2.0324647   0.0000000  -0.2970830), wk =   0.0078125

     Dense  grid:  1153415 G-vectors     FFT dimensions: ( 144, 144, 240)

     Smooth grid:   291749 G-vectors     FFT dimensions: (  90,  90, 150)

     Estimated max dynamical RAM per process >     657.19 MB

     Estimated total dynamical RAM >       6.42 GB

     Initial potential from superposition of free atoms

     starting charge   83.99353, renormalised to   84.00000
     Starting wfcs are   66 randomized atomic wfcs
     Checking if some PAW data can be deallocated... 

     total cpu time spent up to now is       20.5 secs

     Self-consistent Calculation

     iteration #  1     ecut=    80.00 Ry     beta= 0.70
     Davidson diagonalization with overlap
     ethr =  1.00E-02,  avg # of iterations =  2.0

     Threshold (ethr) on eigenvalues was too large:
     Diagonalizing with lowered threshold

     Davidson diagonalization with overlap
     ethr =  3.66E-04,  avg # of iterations =  4.1

     total cpu time spent up to now is      106.8 secs

     total energy              =   -4240.70712400 Ry
     estimated scf accuracy    <       0.42399487 Ry

     iteration #  2     ecut=    80.00 Ry     beta= 0.70
     Davidson diagonalization with overlap
     ethr =  5.05E-04,  avg # of iterations =  7.4

     total cpu time spent up to now is      167.3 secs

     total energy              =   -4240.61542532 Ry
     estimated scf accuracy    <       2.18079653 Ry

     iteration #  3     ecut=    80.00 Ry     beta= 0.70
     Davidson diagonalization with overlap
     ethr =  5.05E-04,  avg # of iterations =  5.1

     total cpu time spent up to now is      218.8 secs

     total energy              =   -4240.90579829 Ry
     estimated scf accuracy    <       0.02050001 Ry

     iteration #  4     ecut=    80.00 Ry     beta= 0.70
     Davidson diagonalization with overlap
     c_bands:  1 eigenvalues not converged
     c_bands:  1 eigenvalues not converged
     c_bands:  1 eigenvalues not converged
     c_bands:  2 eigenvalues not converged
     c_bands:  1 eigenvalues not converged
     c_bands:  2 eigenvalues not converged
     ethr =  2.44E-05,  avg # of iterations = 15.1

     total cpu time spent up to now is      306.2 secs

     total energy              =   -4240.92370547 Ry
     estimated scf accuracy    <       0.08663093 Ry

     iteration #  5     ecut=    80.00 Ry     beta= 0.70
     Davidson diagonalization with overlap
     ethr =  2.44E-05,  avg # of iterations =  4.7

     total cpu time spent up to now is      350.9 secs

     total energy              =   -4240.92558666 Ry
     estimated scf accuracy    <       0.02087459 Ry

     iteration #  6     ecut=    80.00 Ry     beta= 0.70
     Davidson diagonalization with overlap
     ethr =  2.44E-05,  avg # of iterations =  2.5

     total cpu time spent up to now is      389.8 secs

     total energy              =   -4240.92669208 Ry
     estimated scf accuracy    <       0.00277131 Ry

     iteration #  7     ecut=    80.00 Ry     beta= 0.70
     Davidson diagonalization with overlap
     c_bands:  1 eigenvalues not converged
     c_bands:  1 eigenvalues not converged
     c_bands:  2 eigenvalues not converged
     c_bands:  1 eigenvalues not converged
     ethr =  3.30E-06,  avg # of iterations = 13.1

     total cpu time spent up to now is      460.3 secs

     total energy              =   -4240.92828837 Ry
     estimated scf accuracy    <       0.00272583 Ry

     iteration #  8     ecut=    80.00 Ry     beta= 0.70
     Davidson diagonalization with overlap
     ethr =  3.25E-06,  avg # of iterations =  2.3

     total cpu time spent up to now is      496.7 secs

     total energy              =   -4240.92829007 Ry
     estimated scf accuracy    <       0.00059830 Ry

     iteration #  9     ecut=    80.00 Ry     beta= 0.70
     Davidson diagonalization with overlap
     ethr =  7.12E-07,  avg # of iterations =  6.0

     total cpu time spent up to now is      542.5 secs

     total energy              =   -4240.92841371 Ry
     estimated scf accuracy    <       0.00000588 Ry

     iteration # 10     ecut=    80.00 Ry     beta= 0.70
     Davidson diagonalization with overlap
     c_bands:  1 eigenvalues not converged
     ethr =  7.00E-09,  avg # of iterations = 10.9

     total cpu time spent up to now is      620.5 secs

     total energy              =   -4240.92843381 Ry
     estimated scf accuracy    <       0.00001818 Ry

     iteration # 11     ecut=    80.00 Ry     beta= 0.70
     Davidson diagonalization with overlap
     c_bands:  1 eigenvalues not converged
     c_bands:  1 eigenvalues not converged
     ethr =  7.00E-09,  avg # of iterations =  4.7

     total cpu time spent up to now is      667.7 secs

     total energy              =   -4240.92843665 Ry
     estimated scf accuracy    <       0.00000004 Ry

     iteration # 12     ecut=    80.00 Ry     beta= 0.70
     Davidson diagonalization with overlap
     c_bands:  1 eigenvalues not converged
     ethr =  4.28E-11,  avg # of iterations = 11.9

     total cpu time spent up to now is      751.9 secs

     total energy              =   -4240.92843675 Ry
     estimated scf accuracy    <       0.00000040 Ry

     iteration # 13     ecut=    80.00 Ry     beta= 0.70
     Davidson diagonalization with overlap
     ethr =  4.28E-11,  avg # of iterations =  6.0

     total cpu time spent up to now is      805.4 secs

     total energy              =   -4240.92843679 Ry
     estimated scf accuracy    <          3.4E-09 Ry

     iteration # 14     ecut=    80.00 Ry     beta= 0.70
     Davidson diagonalization with overlap
     c_bands:  1 eigenvalues not converged
     ethr =  4.01E-12,  avg # of iterations =  7.5

     total cpu time spent up to now is      862.0 secs

     total energy              =   -4240.92843680 Ry
     estimated scf accuracy    <          2.0E-09 Ry

     iteration # 15     ecut=    80.00 Ry     beta= 0.70
     Davidson diagonalization with overlap
     ethr =  2.39E-12,  avg # of iterations =  1.8

     total cpu time spent up to now is      898.1 secs

     total energy              =   -4240.92843680 Ry
     estimated scf accuracy    <          4.9E-10 Ry

     iteration # 16     ecut=    80.00 Ry     beta= 0.70
     Davidson diagonalization with overlap
     ethr =  5.80E-13,  avg # of iterations =  6.1

     total cpu time spent up to now is      946.2 secs

     End of self-consistent calculation

          k = 0.0000 0.0000 0.0000 ( 36359 PWs)   bands (ev):

   -44.1640 -44.1640 -22.3119 -22.3119 -22.2041 -22.2041 -22.0839 -22.0838
    -7.6277  -7.2001  -6.8151  -6.7639  -6.6497  -5.2497  -5.1750  -4.9320
    -4.8737  -3.8666   0.4800   0.6462   0.8029   1.0330   1.4700   1.6352
     2.4028   2.5546   2.5603   2.9905   3.0421   3.0697   3.2347   3.4843
     3.5186   3.5285   3.8579   4.0358   4.0495   4.2697   4.3114   4.6175
     5.2830   5.5287   5.5386   5.5541   5.8744   6.0865   6.4627   6.7559
     6.9289   7.4891

          k = 0.0000 0.0000 0.1485 ( 36415 PWs)   bands (ev):

   -44.1640 -44.1640 -22.3119 -22.3119 -22.2041 -22.2041 -22.0839 -22.0838
    -7.5895  -7.3141  -6.7979  -6.7691  -6.4796  -5.6797  -4.9583  -4.8869
    -4.7056  -3.9816   0.5117   0.6845   0.9041   1.0627   1.0706   2.0765
     2.1352   2.4235   2.5349   3.0495   3.0773   3.1723   3.2789   3.3512
     3.6557   3.6786   3.8145   4.0074   4.0224   4.2890   4.3223   4.6409
     4.9891   5.0715   5.6759   5.9105   6.0736   6.1077   6.5647   6.7340
     6.7710   7.3019

          k = 0.0000 0.0000-0.2971 ( 36410 PWs)   bands (ev):

   -44.1640 -44.1640 -22.3119 -22.3119 -22.2041 -22.2041 -22.0838 -22.0838
    -7.4784  -7.4784  -6.7819  -6.7819  -6.1167  -6.1167  -4.9194  -4.9194
    -4.2890  -4.2890   0.6762   0.6762   0.8285   0.8285   1.4955   1.4955
     2.4769   2.4769   2.7081   2.7081   3.1068   3.1068   3.3063   3.3063
     3.8076   3.8076   3.8653   3.8653   4.3074   4.3074   4.4340   4.4340
     4.7430   4.7430   5.9539   5.9539   6.2697   6.2697   6.3851   6.3851
     7.1976   7.1977

          k = 0.2541 0.0645 0.0000 ( 36396 PWs)   bands (ev):

   -44.1636 -44.1636 -22.3100 -22.3100 -22.2142 -22.2142 -22.0826 -22.0825
    -7.5141  -7.1093  -6.7189  -6.7168  -6.5943  -5.2224  -5.1540  -4.8921
    -4.8329  -4.0013   0.5679   0.7840   0.9418   1.1499   1.2331   1.5375
     1.9519   2.1940   2.2104   2.5085   2.6004   2.9530   3.5356   3.6085
     3.6378   3.6838   3.7080   3.8398   4.0724   4.0870   4.1864   4.2803
     4.4554   4.7672   5.6363   6.0120   6.3240   6.5377   6.6040   6.8218
     7.0056   7.1478

          k = 0.2541 0.0645 0.1485 ( 36423 PWs)   bands (ev):

   -44.1636 -44.1636 -22.3100 -22.3100 -22.2142 -22.2142 -22.0826 -22.0825
    -7.4769  -7.2126  -6.7368  -6.7229  -6.4011  -5.6242  -4.9352  -4.8484
    -4.7068  -4.0935   0.5874   0.8249   0.9717   1.0076   1.1362   1.6394
     1.8865   2.2712   2.5177   2.5660   2.6005   2.9025   3.2344   3.3073
     3.6075   3.6978   3.7849   3.8676   3.9806   4.0716   4.2109   4.2704
     4.7124   5.1065   5.7651   5.8135   6.2290   6.2835   6.4966   6.6528
     7.2642   7.2795

          k = 0.2541 0.0645-0.2971 ( 36436 PWs)   bands (ev):

   -44.1636 -44.1636 -22.3100 -22.3100 -22.2142 -22.2142 -22.0825 -22.0825
    -7.3692  -7.3692  -6.7331  -6.7331  -6.0427  -6.0427  -4.8864  -4.8864
    -4.3488  -4.3488   0.7115   0.7115   0.9302   0.9302   1.3362   1.3362
     2.2524   2.2524   2.6282   2.6282   2.7598   2.7598   3.0712   3.0712
     3.5674   3.5674   3.8312   3.8312   3.9922   3.9922   4.2643   4.2643
     5.2443   5.2443   5.7326   5.7326   6.0474   6.0474   6.4911   6.4911
     7.4254   7.4254

          k = 0.5081 0.1290 0.0000 ( 36499 PWs)   bands (ev):

   -44.1627 -44.1627 -22.3053 -22.3053 -22.2386 -22.2386 -22.0794 -22.0794
    -7.1980  -6.8932  -6.5900  -6.4359  -6.4087  -5.1885  -5.1408  -4.7867
    -4.7326  -4.4096   0.4705   0.7535   0.8224   1.1561   1.3442   1.4820
     1.6465   1.7909   1.9593   2.1740   2.1992   2.2529   2.5840   3.1627
     3.3035   3.3877   3.4297   3.5443   3.7670   3.8255   4.0052   4.1499
     4.7387   5.3133   5.4132   5.7946   5.8780   6.5186   6.5334   6.8027
     7.3443   7.5649

          k = 0.5081 0.1290 0.1485 ( 36476 PWs)   bands (ev):

   -44.1627 -44.1627 -22.3053 -22.3053 -22.2386 -22.2386 -22.0794 -22.0794
    -7.1652  -6.9543  -6.5925  -6.5561  -6.1673  -5.4934  -4.9393  -4.7616
    -4.7089  -4.4425   0.4949   0.7671   0.9454   1.0973   1.1960   1.4217
     1.4658   1.6902   2.0427   2.0599   2.3363   2.5866   2.8926   3.2025
     3.2894   3.3863   3.4591   3.5627   3.6112   3.8128   3.8502   4.2097
     4.4452   4.6284   5.9683   6.0350   6.2177   6.5324   6.5736   6.6934
     7.1959   7.4756

          k = 0.5081 0.1290-0.2971 ( 36466 PWs)   bands (ev):

   -44.1627 -44.1627 -22.3053 -22.3053 -22.2386 -22.2386 -22.0794 -22.0794
    -7.0734  -7.0734  -6.5908  -6.5908  -5.8430  -5.8430  -4.8326  -4.8326
    -4.5493  -4.5493   0.6230   0.6230   1.1070   1.1070   1.2721   1.2721
     1.3601   1.3601   2.0599   2.0599   2.8081   2.8081   3.0800   3.0800
     3.2956   3.2956   3.5346   3.5346   3.7171   3.7171   3.8704   3.8704
     4.3011   4.3011   6.1920   6.1920   6.5255   6.5255   6.7542   6.7542
     7.0840   7.0840

          k = 0.7622 0.1934 0.0000 ( 36521 PWs)   bands (ev):

   -44.1617 -44.1617 -22.3004 -22.3004 -22.2630 -22.2630 -22.0763 -22.0762
    -6.8197  -6.7109  -6.3232  -6.0477  -6.0225  -5.2811  -5.2576  -5.0413
    -4.6659  -4.6308  -0.0038   0.3373   0.6682   1.1730   1.1805   1.2201
     1.4776   1.5833   1.8973   1.9393   2.2535   2.4683   2.5531   2.7072
     2.7364   3.2468   3.2682   3.3161   3.6456   3.6485   3.7795   3.8995
     4.0353   4.5755   5.7356   6.1237   6.2019   6.6101   6.6794   6.7670
     7.1662   7.5363

          k = 0.7622 0.1934 0.1485 ( 36503 PWs)   bands (ev):

   -44.1617 -44.1617 -22.3004 -22.3004 -22.2630 -22.2630 -22.0763 -22.0763
    -6.8030  -6.7252  -6.3157  -6.1919  -5.8276  -5.4069  -5.1843  -5.0632
    -4.6542  -4.6307   0.0792   0.4347   0.5600   0.9649   1.1744   1.2127
     1.4932   1.6258   1.7343   2.0934   2.1270   2.6466   2.6526   2.8017
     2.8574   3.1786   3.2745   3.3580   3.4442   3.6606   3.7012   3.8667
     4.0249   4.8456   5.2865   6.1971   6.5021   6.5327   6.6769   6.8757
     6.9425   7.4168

          k = 0.7622 0.1934-0.2971 ( 36522 PWs)   bands (ev):

   -44.1617 -44.1617 -22.3004 -22.3004 -22.2630 -22.2630 -22.0763 -22.0763
    -6.7629  -6.7629  -6.2808  -6.2808  -5.6044  -5.6044  -5.1173  -5.1173
    -4.6369  -4.6369   0.2934   0.2934   0.7355   0.7355   1.0611   1.0611
     1.5736   1.5736   1.9556   1.9556   2.3812   2.3812   2.7973   2.7973
     2.9879   2.9879   3.4324   3.4324   3.5559   3.5559   3.7654   3.7654
     4.2374   4.2374   5.9330   5.9330   6.3389   6.3389   6.7629   6.7629
     7.2609   7.2609

          k =-1.0162-0.2579 0.0000 ( 36506 PWs)   bands (ev):

   -44.1613 -44.1613 -22.2982 -22.2982 -22.2733 -22.2733 -22.0750 -22.0750
    -6.6755  -6.6553  -5.7635  -5.7559  -5.5947  -5.5914  -5.5874  -5.5720
    -4.6072  -4.5921   0.1060   0.1340   0.4608   0.4779   1.0124   1.0191
     1.4714   1.6772   2.2128   2.3140   2.3153   2.3199   2.8055   2.8426
     2.8505   2.9835   3.2531   3.2682   3.3097   3.4965   3.5718   3.6826
     3.8764   3.8899   6.3043   6.3389   6.4064   6.4929   6.8986   6.9484
     6.9600   6.9677

          k =-1.0162-0.2579 0.1485 ( 36506 PWs)   bands (ev):

   -44.1613 -44.1613 -22.2982 -22.2982 -22.2733 -22.2733 -22.0750 -22.0750
    -6.6720  -6.6576  -5.7549  -5.7481  -5.6687  -5.6646  -5.5126  -5.5048
    -4.6122  -4.6016   0.0254   0.0351   0.6650   0.6677   1.0424   1.0708
     1.4606   1.5613   1.9203   1.9709   2.3489   2.3578   2.7675   2.7840
     2.9480   2.9620   3.2073   3.2461   3.5109   3.5531   3.6997   3.7363
     4.1373   4.1577   5.8170   5.8216   6.3439   6.4138   6.8073   6.8488
     7.1889   7.2064

          k =-1.0162-0.2579-0.2971 ( 36528 PWs)   bands (ev):

   -44.1613 -44.1613 -22.2982 -22.2982 -22.2733 -22.2733 -22.0750 -22.0750
    -6.6642  -6.6642  -5.7251  -5.7251  -5.7206  -5.7206  -5.4754  -5.4754
    -4.6143  -4.6143  -0.0260  -0.0260   0.8780   0.8780   1.1201   1.1201
     1.4441   1.4441   1.6376   1.6376   2.3527   2.3527   2.7980   2.7980
     2.9239   2.9239   3.2445   3.2445   3.5597   3.5597   3.7621   3.7621
     4.7160   4.7160   5.1638   5.1638   6.3155   6.3155   6.8393   6.8393
     7.2472   7.2472

          k = 0.5081 0.0000 0.0000 ( 36503 PWs)   bands (ev):

   -44.1627 -44.1627 -22.3053 -22.3053 -22.2386 -22.2386 -22.0794 -22.0794
    -7.2045  -6.8966  -6.5818  -6.4374  -6.4033  -5.1896  -5.1369  -4.7833
    -4.7371  -4.4092   0.4683   0.7517   0.8295   1.1217   1.3398   1.4618
     1.6532   1.7943   1.9701   2.1376   2.2000   2.2290   2.5934   3.1433
     3.3060   3.3838   3.4839   3.5754   3.7747   3.8112   4.0390   4.1879
     4.7410   5.3194   5.4196   5.8248   5.8586   6.4791   6.4820   6.8379
     7.3754   7.5699

          k = 0.5081 0.0000 0.1485 ( 36453 PWs)   bands (ev):

   -44.1627 -44.1627 -22.3053 -22.3053 -22.2386 -22.2386 -22.0794 -22.0794
    -7.1717  -6.9593  -6.5838  -6.5504  -6.1678  -5.4944  -4.9324  -4.7631
    -4.7104  -4.4433   0.4921   0.7619   0.9520   1.0993   1.1650   1.4089
     1.4574   1.6890   2.0395   2.0582   2.3316   2.5618   2.8841   3.1889
     3.2826   3.4155   3.4867   3.5910   3.6034   3.8504   3.8504   4.2441
     4.4611   4.6321   5.9726   6.0514   6.2193   6.4810   6.5392   6.7232
     7.2227   7.4782

          k = 0.5081 0.0000-0.2971 ( 36452 PWs)   bands (ev):

   -44.1627 -44.1627 -22.3053 -22.3053 -22.2386 -22.2386 -22.0794 -22.0794
    -7.0797  -7.0797  -6.5826  -6.5826  -5.8443  -5.8443  -4.8282  -4.8282
    -4.5519  -4.5519   0.6181   0.6181   1.1080   1.1080   1.2770   1.2770
     1.3319   1.3319   2.0588   2.0588   2.7985   2.7985   3.0538   3.0538
     3.2887   3.2887   3.5988   3.5988   3.7199   3.7199   3.8738   3.8738
     4.3271   4.3271   6.2070   6.2070   6.4922   6.4922   6.7674   6.7674
     7.0861   7.0861

          k = 0.7622 0.0645 0.0000 ( 36505 PWs)   bands (ev):

   -44.1617 -44.1617 -22.3004 -22.3004 -22.2630 -22.2630 -22.0763 -22.0762
    -6.8294  -6.7095  -6.3135  -6.0465  -6.0256  -5.2816  -5.2518  -5.0411
    -4.6609  -4.6372  -0.0105   0.3493   0.6951   1.1629   1.2176   1.2335
     1.4319   1.5382   1.8732   1.9483   2.1960   2.4535   2.5393   2.6900
     2.7040   3.2978   3.3150   3.3168   3.5906   3.6686   3.8376   3.9268
     4.0534   4.6207   5.7345   6.1370   6.1642   6.5745   6.7226   6.7367
     7.1928   7.6540

          k = 0.7622 0.0645 0.1485 ( 36509 PWs)   bands (ev):

   -44.1617 -44.1617 -22.3004 -22.3004 -22.2630 -22.2630 -22.0763 -22.0763
    -6.8117  -6.7261  -6.3063  -6.1891  -5.8302  -5.4076  -5.1797  -5.0622
    -4.6509  -4.6352   0.0753   0.4428   0.5694   0.9906   1.1902   1.2076
     1.4524   1.6328   1.7434   2.0331   2.0454   2.6399   2.6555   2.7695
     2.8514   3.1776   3.3453   3.3808   3.4047   3.6802   3.7354   3.8842
     4.0749   4.8449   5.3143   6.1837   6.5017   6.5132   6.6944   6.8758
     6.9273   7.4351

          k = 0.7622 0.0645-0.2971 ( 36472 PWs)   bands (ev):

   -44.1617 -44.1617 -22.3004 -22.3004 -22.2630 -22.2630 -22.0763 -22.0763
    -6.7684  -6.7684  -6.2737  -6.2737  -5.6067  -5.6067  -5.1143  -5.1143
    -4.6374  -4.6374   0.2953   0.2953   0.7326   0.7326   1.0878   1.0878
     1.5699   1.5699   1.9000   1.9000   2.3467   2.3467   2.7855   2.7855
     2.9879   2.9879   3.5014   3.5014   3.5543   3.5543   3.7605   3.7605
     4.2623   4.2623   5.9563   5.9563   6.3402   6.3402   6.7278   6.7278
     7.2866   7.2866

          k = 1.0162 0.1290 0.0000 ( 36514 PWs)   bands (ev):

   -44.1613 -44.1613 -22.2982 -22.2982 -22.2733 -22.2733 -22.0750 -22.0750
    -6.6755  -6.6553  -5.7628  -5.7566  -5.5956  -5.5905  -5.5874  -5.5720
    -4.6072  -4.5921   0.1003   0.1398   0.4544   0.4845   1.0074   1.0260
     1.4763   1.6686   2.2178   2.2951   2.3117   2.3243   2.8093   2.8431
     2.8790   2.9768   3.2195   3.2934   3.3187   3.5007   3.5514   3.6890
     3.8762   3.8871   6.3046   6.3402   6.4017   6.4980   6.9060   6.9516
     6.9575   6.9699

          k = 1.0162 0.1290 0.1485 ( 36524 PWs)   bands (ev):

   -44.1613 -44.1613 -22.2982 -22.2982 -22.2733 -22.2733 -22.0750 -22.0750
    -6.6720  -6.6576  -5.7543  -5.7488  -5.6693  -5.6640  -5.5128  -5.5046
    -4.6122  -4.6016   0.0235   0.0367   0.6623   0.6710   1.0469   1.0677
     1.4644   1.5601   1.9175   1.9676   2.3406   2.3537   2.7271   2.8346
     2.9643   2.9758   3.1810   3.2488   3.5099   3.5813   3.6914   3.7085
     4.1421   4.1586   5.8046   5.8360   6.3414   6.4162   6.8141   6.8482
     7.1915   7.2038

          k = 1.0162 0.1290-0.2971 ( 36516 PWs)   bands (ev):

   -44.1613 -44.1613 -22.2982 -22.2982 -22.2733 -22.2733 -22.0750 -22.0750
    -6.6642  -6.6642  -5.7248  -5.7248  -5.7209  -5.7209  -5.4754  -5.4754
    -4.6143  -4.6143  -0.0262  -0.0262   0.8773   0.8773   1.1233   1.1233
     1.4426   1.4426   1.6384   1.6384   2.3422   2.3422   2.7803   2.7803
     2.9711   2.9711   3.2244   3.2244   3.5671   3.5671   3.7528   3.7528
     4.7163   4.7163   5.1655   5.1655   6.3153   6.3153   6.8420   6.8420
     7.2469   7.2469

          k =-0.7622-0.3224 0.0000 ( 36511 PWs)   bands (ev):

   -44.1617 -44.1617 -22.3004 -22.3004 -22.2630 -22.2630 -22.0763 -22.0762
    -6.8043  -6.7144  -6.3371  -6.0495  -6.0179  -5.2804  -5.2658  -5.0416
    -4.6702  -4.6246   0.0060   0.3208   0.6327   1.1556   1.1868   1.2001
     1.4992   1.6556   1.9285   1.9431   2.3430   2.4846   2.5750   2.7303
     2.7753   3.1535   3.2324   3.3482   3.6039   3.6522   3.7482   3.8613
     4.0060   4.5038   5.7377   6.1228   6.2437   6.5985   6.6643   6.8347
     7.1239   7.6580

          k =-0.7622-0.3224 0.1485 ( 36492 PWs)   bands (ev):

   -44.1617 -44.1617 -22.3004 -22.3004 -22.2630 -22.2630 -22.0763 -22.0763
    -6.7893  -6.7249  -6.3290  -6.1962  -5.8238  -5.4061  -5.1907  -5.0646
    -4.6570  -4.6262   0.0845   0.4248   0.5449   0.9374   1.1557   1.2193
     1.5527   1.6155   1.7155   2.1889   2.2409   2.6494   2.6605   2.8331
     2.8667   3.1738   3.2036   3.3396   3.4720   3.6209   3.6670   3.8356
     3.9425   4.8454   5.2491   6.2192   6.4856   6.5511   6.6707   6.8951
     6.9598   7.3860

          k =-0.7622-0.3224-0.2971 ( 36508 PWs)   bands (ev):

   -44.1617 -44.1617 -22.3004 -22.3004 -22.2630 -22.2630 -22.0763 -22.0763
    -6.7550  -6.7550  -6.2911  -6.2911  -5.6012  -5.6012  -5.1216  -5.1216
    -4.6362  -4.6362   0.2903   0.2903   0.7397   0.7397   1.0309   1.0309
     1.5764   1.5764   2.0233   2.0233   2.4440   2.4440   2.8188   2.8188
     2.9860   2.9860   3.3388   3.3388   3.5609   3.5609   3.7539   3.7539
     4.2029   4.2029   5.9018   5.9018   6.3354   6.3354   6.8230   6.8230
     7.2172   7.2172

          k =-0.5081-0.2579 0.0000 ( 36480 PWs)   bands (ev):

   -44.1627 -44.1627 -22.3053 -22.3053 -22.2386 -22.2386 -22.0794 -22.0794
    -7.1811  -6.8858  -6.6095  -6.4323  -6.4227  -5.1860  -5.1503  -4.7920
    -4.7247  -4.4106   0.4772   0.7516   0.8062   1.2543   1.3537   1.5346
     1.6361   1.7852   1.9388   2.2170   2.2379   2.2901   2.5654   3.2156
     3.3042   3.3065   3.4011   3.4422   3.7372   3.8342   3.9567   4.0728
     4.7305   5.3014   5.3884   5.7274   5.9275   6.6159   6.6534   6.7184
     7.2674   7.5360

          k =-0.5081-0.2579 0.1485 ( 36485 PWs)   bands (ev):

   -44.1627 -44.1627 -22.3053 -22.3053 -22.2386 -22.2386 -22.0794 -22.0794
    -7.1485  -6.9418  -6.6130  -6.5717  -6.1661  -5.4909  -4.9548  -4.7596
    -4.7048  -4.4407   0.5022   0.7746   0.9304   1.0930   1.2826   1.4325
     1.5130   1.6876   2.0516   2.0672   2.3451   2.6439   2.9114   3.2378
     3.2811   3.3057   3.4371   3.4624   3.6171   3.7762   3.8285   4.1358
     4.3990   4.6199   5.9393   6.0146   6.2148   6.6196   6.6505   6.6676
     7.1290   7.4723

          k =-0.5081-0.2579-0.2971 ( 36478 PWs)   bands (ev):

   -44.1627 -44.1627 -22.3053 -22.3053 -22.2386 -22.2386 -22.0794 -22.0794
    -7.0575  -7.0575  -6.6112  -6.6112  -5.8397  -5.8397  -4.8428  -4.8428
    -4.5432  -4.5432   0.6340   0.6340   1.1035   1.1035   1.2635   1.2635
     1.4331   1.4331   2.0620   2.0620   2.8325   2.8325   3.1492   3.1492
     3.3112   3.3112   3.3812   3.3812   3.7036   3.7036   3.8614   3.8614
     4.2357   4.2357   6.1536   6.1536   6.5955   6.5955   6.7323   6.7323
     7.0826   7.0826

          k =-0.2541-0.1934 0.0000 ( 36410 PWs)   bands (ev):

   -44.1636 -44.1636 -22.3100 -22.3100 -22.2142 -22.2142 -22.0826 -22.0825
    -7.5021  -7.0972  -6.7356  -6.7142  -6.6120  -5.2204  -5.1614  -4.8989
    -4.8246  -4.0024   0.6012   0.8599   0.9517   1.1725   1.2643   1.5390
     1.9720   2.2005   2.2285   2.4713   2.5760   3.0239   3.4087   3.4995
     3.5669   3.6835   3.7632   3.8405   4.0144   4.0863   4.1599   4.2470
     4.3969   4.7333   5.6829   6.0244   6.3572   6.5638   6.6006   6.8451
     7.0038   7.0745

          k =-0.2541-0.1934 0.1485 ( 36427 PWs)   bands (ev):

   -44.1636 -44.1636 -22.3100 -22.3100 -22.2142 -22.2142 -22.0826 -22.0825
    -7.4648  -7.1999  -6.7529  -6.7365  -6.4038  -5.6222  -4.9528  -4.8445
    -4.7002  -4.0931   0.6143   0.8870   1.0040   1.0470   1.1482   1.6566
     1.8866   2.2744   2.4898   2.5545   2.6156   2.9144   3.2311   3.3245
     3.4737   3.6206   3.7574   3.8757   3.9649   4.0571   4.1549   4.2197
     4.6909   5.0844   5.7701   5.8054   6.1941   6.3185   6.5811   6.6748
     7.2332   7.2592

          k =-0.2541-0.1934-0.2971 ( 36422 PWs)   bands (ev):

   -44.1636 -44.1636 -22.3100 -22.3100 -22.2142 -22.2142 -22.0825 -22.0825
    -7.3568  -7.3568  -6.7496  -6.7496  -6.0412  -6.0412  -4.8931  -4.8931
    -4.3455  -4.3455   0.7307   0.7307   0.9964   0.9964   1.3459   1.3459
     2.2509   2.2509   2.5902   2.5902   2.7780   2.7780   3.1032   3.1032
     3.4709   3.4709   3.7997   3.7997   3.9868   3.9868   4.2072   4.2072
     5.2319   5.2319   5.6965   5.6965   6.0337   6.0337   6.5804   6.5804
     7.4041   7.4042

          k = 0.0000-0.1290 0.0000 ( 36417 PWs)   bands (ev):

   -44.1640 -44.1640 -22.3119 -22.3119 -22.2041 -22.2041 -22.0839 -22.0838
    -7.6214  -7.1929  -6.8138  -6.7734  -6.6600  -5.2488  -5.1788  -4.9371
    -4.8681  -3.8673   0.5079   0.6889   0.8090   1.0353   1.4935   1.6453
     2.4068   2.5532   2.5673   2.9985   3.0637   3.0811   3.2323   3.4183
     3.4475   3.5180   3.8071   4.0204   4.0495   4.2167   4.2626   4.6194
     5.2763   5.5048   5.5457   5.5547   5.8861   6.1267   6.5149   6.7231
     6.9299   7.2991

          k = 0.0000-0.1290 0.1485 ( 36419 PWs)   bands (ev):

   -44.1640 -44.1640 -22.3119 -22.3119 -22.2041 -22.2041 -22.0839 -22.0838
    -7.5831  -7.3071  -6.8051  -6.7774  -6.4822  -5.6788  -4.9688  -4.8841
    -4.7020  -3.9815   0.5354   0.7270   0.9198   1.0620   1.0873   2.0853
     2.1500   2.4279   2.5414   3.0715   3.0743   3.1679   3.2321   3.3056
     3.6479   3.6782   3.7563   3.9786   4.0060   4.2429   4.2774   4.6429
     4.9882   5.0565   5.6821   5.9125   6.0832   6.1143   6.5541   6.7720
     6.7791   7.4349

          k = 0.0000-0.1290-0.2971 ( 36464 PWs)   bands (ev):

   -44.1640 -44.1640 -22.3119 -22.3119 -22.2041 -22.2041 -22.0838 -22.0838
    -7.4718  -7.4718  -6.7908  -6.7908  -6.1162  -6.1162  -4.9230  -4.9230
    -4.2874  -4.2874   0.7097   0.7097   0.8401   0.8401   1.5056   1.5056
     2.4822   2.4822   2.7187   2.7187   3.1013   3.1013   3.2615   3.2615
     3.7865   3.7865   3.8607   3.8607   4.2265   4.2265   4.4449   4.4449
     4.7443   4.7443   5.9357   5.9357   6.2922   6.2922   6.3863   6.3863
     7.2055   7.2055

          k = 1.0162 0.0000 0.0000 ( 36499 PWs)   bands (ev):

   -44.1613 -44.1613 -22.2982 -22.2982 -22.2733 -22.2733 -22.0750 -22.0750
    -6.6755  -6.6553  -5.7620  -5.7574  -5.5962  -5.5898  -5.5874  -5.5720
    -4.6072  -4.5921   0.0959   0.1443   0.4501   0.4890   1.0051   1.0304
     1.4817   1.6593   2.2252   2.2751   2.3098   2.3269   2.8163   2.8325
     2.9234   2.9620   3.2037   3.2986   3.3300   3.4993   3.5353   3.6987
     3.8603   3.8968   6.3049   6.3415   6.3973   6.5027   6.9145   6.9537
     6.9548   6.9723

          k = 1.0162 0.0000 0.1485 ( 36485 PWs)   bands (ev):

   -44.1613 -44.1613 -22.2982 -22.2982 -22.2733 -22.2733 -22.0750 -22.0750
    -6.6720  -6.6576  -5.7534  -5.7496  -5.6698  -5.6634  -5.5130  -5.5045
    -4.6122  -4.6016   0.0219   0.0378   0.6610   0.6729   1.0544   1.0616
     1.4686   1.5586   1.9144   1.9646   2.3339   2.3487   2.7123   2.8523
     2.9703   3.0202   3.1429   3.2499   3.5111   3.6368   3.6516   3.6832
     4.1459   4.1603   5.7992   5.8433   6.3391   6.4184   6.8219   6.8466
     7.1968   7.1985

          k = 1.0162 0.0000-0.2971 ( 36514 PWs)   bands (ev):

   -44.1613 -44.1613 -22.2982 -22.2982 -22.2733 -22.2733 -22.0750 -22.0750
    -6.6642  -6.6642  -5.7245  -5.7245  -5.7212  -5.7212  -5.4754  -5.4754
    -4.6143  -4.6143  -0.0263  -0.0263   0.8767   0.8767   1.1265   1.1265
     1.4410   1.4410   1.6392   1.6392   2.3321   2.3321   2.7686   2.7686
     3.0189   3.0189   3.1977   3.1977   3.5749   3.5749   3.7429   3.7429
     4.7165   4.7165   5.1673   5.1673   6.3150   6.3150   6.8447   6.8447
     7.2466   7.2466

          k = 1.2703 0.0645 0.0000 ( 36468 PWs)   bands (ev):

   -44.1617 -44.1617 -22.3004 -22.3004 -22.2630 -22.2630 -22.0763 -22.0762
    -6.7912  -6.7187  -6.3470  -6.0509  -6.0146  -5.2800  -5.2716  -5.0418
    -4.6723  -4.6211   0.0130   0.3095   0.6089   1.1513   1.1819   1.1962
     1.5016   1.7078   1.9222   1.9816   2.4027   2.5080   2.5921   2.7459
     2.7972   3.0663   3.2337   3.4255   3.5405   3.5554   3.8002   3.8337
     3.9840   4.4448   5.7394   6.1282   6.2718   6.5416   6.7061   6.8892
     7.0871   7.5505

          k = 1.2703 0.0645 0.1485 ( 36490 PWs)   bands (ev):

   -44.1617 -44.1617 -22.3004 -22.3004 -22.2630 -22.2630 -22.0763 -22.0763
    -6.7781  -6.7261  -6.3386  -6.1993  -5.8211  -5.4055  -5.1952  -5.0656
    -4.6583  -4.6237   0.0879   0.4190   0.5331   0.9223   1.1447   1.2236
     1.6021   1.6211   1.6802   2.2655   2.3198   2.6589   2.6683   2.8512
     2.8708   3.0861   3.2511   3.3453   3.4304   3.5873   3.7010   3.7921
     3.8682   4.8445   5.2242   6.2389   6.4542   6.5647   6.6796   6.9206
     6.9710   7.3603

          k = 1.2703 0.0645-0.2971 ( 36480 PWs)   bands (ev):

   -44.1617 -44.1617 -22.3004 -22.3004 -22.2630 -22.2630 -22.0763 -22.0763
    -6.7491  -6.7491  -6.2986  -6.2986  -5.5989  -5.5989  -5.1246  -5.1246
    -4.6357  -4.6357   0.2878   0.2878   0.7426   0.7426   1.0136   1.0136
     1.5782   1.5782   2.0615   2.0615   2.4986   2.4986   2.8570   2.8570
     2.9713   2.9713   3.2612   3.2612   3.5750   3.5750   3.7319   3.7319
     4.1793   4.1793   5.8809   5.8809   6.3321   6.3321   6.8768   6.8768
     7.1771   7.1771

          k =-0.5081-0.3869 0.0000 ( 36463 PWs)   bands (ev):

   -44.1627 -44.1627 -22.3053 -22.3053 -22.2386 -22.2386 -22.0794 -22.0794
    -7.1627  -6.8796  -6.6278  -6.4380  -6.4287  -5.1835  -5.1600  -4.7948
    -4.7191  -4.4115   0.4861   0.7415   0.7912   1.3618   1.3936   1.5795
     1.6210   1.8004   1.9057   2.2494   2.2689   2.3113   2.5641   3.1794
     3.2729   3.3163   3.3193   3.4409   3.7026   3.7470   3.9375   4.0564
     4.7202   5.2921   5.3441   5.6733   5.9825   6.6334   6.7268   6.7672
     7.1789   7.5309

          k =-0.5081-0.3869 0.1485 ( 36477 PWs)   bands (ev):

   -44.1627 -44.1627 -22.3053 -22.3053 -22.2386 -22.2386 -22.0794 -22.0794
    -7.1301  -6.9291  -6.6325  -6.5904  -6.1646  -5.4884  -4.9691  -4.7593
    -4.7002  -4.4390   0.5106   0.7755   0.9167   1.0887   1.4022   1.4351
     1.5648   1.6769   2.0635   2.0817   2.3443   2.6944   2.9286   3.1542
     3.2812   3.3080   3.3454   3.4662   3.6196   3.7327   3.7925   4.0987
     4.3341   4.6123   5.8875   6.0181   6.2133   6.5545   6.7539   6.7813
     7.0493   7.4804

          k =-0.5081-0.3869-0.2971 ( 36492 PWs)   bands (ev):

   -44.1627 -44.1627 -22.3053 -22.3053 -22.2386 -22.2386 -22.0794 -22.0794
    -7.0399  -7.0399  -6.6333  -6.6333  -5.8363  -5.8363  -4.8527  -4.8527
    -4.5375  -4.5375   0.6443   0.6443   1.0984   1.0984   1.2560   1.2560
     1.5203   1.5203   2.0613   2.0613   2.8567   2.8567   3.2124   3.2124
     3.2452   3.2452   3.3323   3.3323   3.6689   3.6689   3.8546   3.8546
     4.1673   4.1673   6.1152   6.1152   6.6212   6.6212   6.7499   6.7499
     7.0889   7.0889

          k =-0.2541-0.3224 0.0000 ( 36485 PWs)   bands (ev):

   -44.1636 -44.1636 -22.3100 -22.3100 -22.2142 -22.2142 -22.0826 -22.0825
    -7.4840  -7.0795  -6.7573  -6.7106  -6.6405  -5.2176  -5.1724  -4.9040
    -4.8171  -4.0038   0.6288   0.9665   0.9898   1.2215   1.3369   1.5382
     2.0044   2.2038   2.2591   2.3855   2.5148   3.1457   3.2394   3.3134
     3.5125   3.7012   3.7867   3.8220   3.9953   4.0360   4.1034   4.2076
     4.3893   4.6634   5.7575   6.0360   6.3839   6.5043   6.6840   6.8795
     6.9637   7.0108

          k =-0.2541-0.3224 0.1485 ( 36445 PWs)   bands (ev):

   -44.1636 -44.1636 -22.3100 -22.3100 -22.2142 -22.2142 -22.0826 -22.0825
    -7.4465  -7.1808  -6.7760  -6.7580  -6.4072  -5.6194  -4.9740  -4.8421
    -4.6915  -4.0927   0.6337   0.9438   1.0915   1.1121   1.2104   1.6816
     1.8915   2.2689   2.4061   2.5220   2.6404   2.9220   3.2317   3.2965
     3.3234   3.5001   3.7929   3.8751   3.9397   4.0409   4.0808   4.1398
     4.6853   5.0458   5.7679   5.8124   6.1792   6.2923   6.6852   6.7225
     7.1749   7.2525

          k =-0.2541-0.3224-0.2971 ( 36442 PWs)   bands (ev):

   -44.1636 -44.1636 -22.3100 -22.3100 -22.2142 -22.2142 -22.0825 -22.0825
    -7.3381  -7.3381  -6.7743  -6.7743  -6.0390  -6.0390  -4.9026  -4.9026
    -4.3410  -4.3410   0.7401   0.7401   1.1312   1.1312   1.3609   1.3609
     2.2430   2.2430   2.5166   2.5166   2.7964   2.7964   3.1611   3.1611
     3.2960   3.2960   3.7964   3.7964   3.9890   3.9890   4.1240   4.1240
     5.2179   5.2179   5.6597   5.6597   6.0019   6.0019   6.6875   6.6875
     7.3724   7.3724

          k = 0.0000-0.2579 0.0000 ( 36445 PWs)   bands (ev):

   -44.1640 -44.1640 -22.3119 -22.3119 -22.2041 -22.2041 -22.0839 -22.0838
    -7.6054  -7.1748  -6.8105  -6.7950  -6.6873  -5.2465  -5.1885  -4.9447
    -4.8590  -3.8689   0.5591   0.8072   0.8239   1.0721   1.5469   1.6684
     2.4169   2.5437   2.5849   3.0355   3.0488   3.1803   3.1919   3.2266
     3.2397   3.4924   3.7740   4.0031   4.0493   4.0746   4.1403   4.6242
     5.2604   5.4316   5.5627   5.6218   5.9152   6.1834   6.6150   6.6346
     6.9322   7.2573

          k = 0.0000-0.2579 0.1485 ( 36452 PWs)   bands (ev):

   -44.1640 -44.1640 -22.3119 -22.3119 -22.2041 -22.2041 -22.0839 -22.0838
    -7.5670  -7.2896  -6.8242  -6.7973  -6.4882  -5.6764  -4.9903  -4.8803
    -4.6938  -3.9813   0.5729   0.8372   0.9883   1.0844   1.1140   2.1089
     2.1822   2.4388   2.5577   3.0569   3.0608   3.1233   3.1569   3.1606
     3.6292   3.6536   3.6945   3.9333   4.0025   4.1242   4.1694   4.6477
     4.9860   5.0332   5.7050   5.9176   6.0994   6.1145   6.5230   6.7744
     6.8642   7.2455

          k = 0.0000-0.2579-0.2971 ( 36454 PWs)   bands (ev):

   -44.1640 -44.1640 -22.3119 -22.3119 -22.2041 -22.2041 -22.0838 -22.0838
    -7.4553  -7.4553  -6.8130  -6.8130  -6.1149  -6.1149  -4.9315  -4.9315
    -4.2835  -4.2835   0.7456   0.7456   0.9277   0.9277   1.5310   1.5310
     2.4955   2.4955   2.7336   2.7336   3.0877   3.0877   3.1086   3.1086
     3.7703   3.7703   3.8495   3.8495   4.0900   4.0900   4.4389   4.4389
     4.7476   4.7476   5.8976   5.8976   6.3269   6.3269   6.3893   6.3893
     7.1994   7.1994

          k = 1.5243 0.0000 0.0000 ( 36439 PWs)   bands (ev):

   -44.1627 -44.1626 -22.3053 -22.3053 -22.2386 -22.2386 -22.0794 -22.0794
    -7.1544  -6.8777  -6.6348  -6.4449  -6.4271  -5.1824  -5.1640  -4.7955
    -4.7172  -4.4119   0.4906   0.7350   0.7852   1.3648   1.5106   1.5463
     1.6117   1.8225   1.8838   2.2673   2.2695   2.3128   2.5738   3.1236
     3.2579   3.2915   3.3312   3.5054   3.6465   3.6907   3.9328   4.0693
     4.7155   5.2888   5.3181   5.6559   6.0075   6.5973   6.7951   6.7998
     7.1335   7.5272

          k = 1.5243 0.0000 0.1485 ( 36476 PWs)   bands (ev):

   -44.1627 -44.1627 -22.3053 -22.3053 -22.2386 -22.2386 -22.0794 -22.0794
    -7.1219  -6.9238  -6.6399  -6.5994  -6.1640  -5.4874  -4.9747  -4.7595
    -4.6982  -4.4382   0.5145   0.7740   0.9114   1.0870   1.4309   1.5160
     1.5258   1.6812   2.0691   2.0929   2.3381   2.7092   2.9407   3.0986
     3.2537   3.3156   3.3288   3.5487   3.5643   3.6981   3.7768   4.1058
     4.2956   4.6096   5.8633   6.0229   6.2131   6.5271   6.8005   6.8397
     7.0016   7.4920

          k = 1.5243 0.0000-0.2971 ( 36508 PWs)   bands (ev):

   -44.1627 -44.1627 -22.3053 -22.3053 -22.2386 -22.2386 -22.0794 -22.0794
    -7.0321  -7.0321  -6.6429  -6.6429  -5.8349  -5.8349  -4.8567  -4.8567
    -4.5353  -4.5353   0.6484   0.6484   1.0958   1.0958   1.2531   1.2531
     1.5626   1.5626   2.0592   2.0592   2.8656   2.8656   3.1537   3.1537
     3.2841   3.2841   3.3413   3.3413   3.6414   3.6414   3.8532   3.8532
     4.1385   4.1385   6.0995   6.0995   6.6163   6.6163   6.7699   6.7699
     7.0951   7.0951

          k =-0.2541-0.4514 0.0000 ( 36444 PWs)   bands (ev):

   -44.1636 -44.1636 -22.3100 -22.3100 -22.2142 -22.2142 -22.0826 -22.0825
    -7.4703  -7.0669  -6.7700  -6.7080  -6.6642  -5.2157  -5.1803  -4.9056
    -4.8135  -4.0049   0.6361   0.9777   1.0978   1.2676   1.4275   1.5357
     2.0429   2.1913   2.2843   2.2875   2.4321   3.1232   3.1942   3.2575
     3.5080   3.7260   3.7332   3.7946   3.9783   3.9996   4.0761   4.1818
     4.4421   4.5809   5.8191   6.0418   6.3966   6.4563   6.7327   6.8996
     6.9077   7.0034

          k =-0.2541-0.4514 0.1485 ( 36461 PWs)   bands (ev):

   -44.1636 -44.1636 -22.3100 -22.3100 -22.2142 -22.2142 -22.0826 -22.0825
    -7.4327  -7.1663  -6.7913  -6.7765  -6.4093  -5.6174  -4.9875  -4.8415
    -4.6858  -4.0924   0.6373   0.9637   1.1057   1.2480   1.2952   1.7019
     1.9043   2.2425   2.3053   2.4716   2.6607   2.9143   3.1794   3.1937
     3.3533   3.4942   3.8170   3.8261   3.9317   4.0045   4.0522   4.0927
     4.6956   5.0125   5.7639   5.8257   6.1906   6.2353   6.7472   6.7598
     7.1397   7.2486

          k =-0.2541-0.4514-0.2971 ( 36490 PWs)   bands (ev):

   -44.1636 -44.1636 -22.3100 -22.3100 -22.2142 -22.2142 -22.0825 -22.0825
    -7.3239  -7.3239  -6.7927  -6.7927  -6.0373  -6.0373  -4.9093  -4.9093
    -4.3379  -4.3379   0.7403   0.7403   1.2564   1.2564   1.3787   1.3787
     2.2183   2.2183   2.4441   2.4441   2.8066   2.8066   3.1644   3.1644
     3.2299   3.2299   3.7850   3.7850   3.9994   3.9994   4.0658   4.0658
     5.2102   5.2102   5.6397   5.6397   5.9740   5.9740   6.7522   6.7522
     7.3497   7.3497

          k = 0.0000-0.3869 0.0000 ( 36477 PWs)   bands (ev):

   -44.1640 -44.1640 -22.3119 -22.3119 -22.2041 -22.2041 -22.0839 -22.0838
    -7.5885  -7.1557  -6.8136  -6.8072  -6.7196  -5.2441  -5.1987  -4.9481
    -4.8534  -3.8705   0.5827   0.8395   0.9693   1.1399   1.6119   1.6899
     2.4274   2.5130   2.6038   2.8994   3.0232   3.0329   3.0924   3.2209
     3.3157   3.4661   3.8076   3.8929   3.9877   4.0064   4.0489   4.6293
     5.2449   5.3902   5.5799   5.6992   5.9457   6.2148   6.5299   6.6885
     6.9343   7.3024

          k = 0.0000-0.3869 0.1485 ( 36452 PWs)   bands (ev):

   -44.1640 -44.1640 -22.3119 -22.3119 -22.2041 -22.2041 -22.0839 -22.0838
    -7.5498  -7.2706  -6.8451  -6.8185  -6.4936  -5.6740  -5.0090  -4.8789
    -4.6863  -3.9812   0.5839   0.9584   1.0713   1.1126   1.1969   2.1372
     2.2038   2.4503   2.5750   2.8423   2.8726   3.0415   3.1453   3.2599
     3.6105   3.6309   3.6938   3.9104   3.9988   4.0037   4.0633   4.6527
     4.9836   5.0214   5.7374   5.9234   6.0871   6.1172   6.4879   6.7767
     6.9241   7.2042

          k = 0.0000-0.3869-0.2971 ( 36454 PWs)   bands (ev):

   -44.1640 -44.1640 -22.3119 -22.3119 -22.2041 -22.2041 -22.0838 -22.0838
    -7.4375  -7.4375  -6.8364  -6.8364  -6.1135  -6.1135  -4.9401  -4.9401
    -4.2797  -4.2797   0.7441   0.7441   1.0838   1.0838   1.5591   1.5591
     2.5095   2.5095   2.6703   2.6703   2.9746   2.9746   3.0735   3.0735
     3.7750   3.7750   3.8384   3.8384   3.9884   3.9884   4.4269   4.4269
     4.7509   4.7509   5.8599   5.8599   6.3464   6.3464   6.3926   6.3926
     7.1735   7.1735

          k =-2.0325 0.0000 0.0000 ( 36452 PWs)   bands (ev):

   -44.1640 -44.1640 -22.3119 -22.3119 -22.2041 -22.2041 -22.0839 -22.0838
    -7.5811  -7.1475  -6.8196  -6.8059  -6.7352  -5.2432  -5.2031  -4.9487
    -4.8518  -3.8712   0.5855   0.8461   1.0738   1.1521   1.6535   1.6984
     2.4319   2.4869   2.6120   2.7542   2.9410   3.0260   3.1236   3.2186
     3.4045   3.4551   3.7847   3.8389   3.9449   3.9720   4.0486   4.6314
     5.2386   5.3785   5.5870   5.7363   5.9591   6.2238   6.4801   6.7134
     6.9351   7.2041

          k =-2.0325 0.0000 0.1485 ( 36456 PWs)   bands (ev):

   -44.1640 -44.1640 -22.3119 -22.3119 -22.2041 -22.2041 -22.0839 -22.0838
    -7.5424  -7.2623  -6.8539  -6.8281  -6.4956  -5.6730  -5.0162  -4.8787
    -4.6833  -3.9811   0.5832   1.0045   1.0819   1.1561   1.2614   2.1486
     2.2095   2.4551   2.5826   2.7067   2.7778   3.0348   3.1403   3.3251
     3.6027   3.6098   3.7064   3.8790   3.9619   3.9972   4.0278   4.6549
     4.9826   5.0189   5.7547   5.9260   6.0686   6.1233   6.4732   6.7777
     6.9428   7.1883

          k =-2.0325 0.0000-0.2971 ( 36460 PWs)   bands (ev):

   -44.1640 -44.1640 -22.3119 -22.3119 -22.2041 -22.2041 -22.0838 -22.0838
    -7.4297  -7.4297  -6.8466  -6.8466  -6.1129  -6.1129  -4.9437  -4.9437
    -4.2781  -4.2781   0.7404   0.7404   1.1661   1.1661   1.5728   1.5728
     2.5156   2.5156   2.5871   2.5871   2.9593   2.9593   3.0673   3.0673
     3.7700   3.7700   3.8337   3.8337   3.9590   3.9590   4.4224   4.4224
     4.7524   4.7524   5.8433   5.8433   6.3518   6.3518   6.3940   6.3940
     7.1602   7.1603

     the Fermi energy is     5.2596 ev

!    total energy              =   -4240.92843680 Ry

     total all-electron energy =   -150287.622131 Ry
     estimated scf accuracy    <          4.4E-11 Ry
     smearing contrib. (-TS)   =       0.00000326 Ry
     internal energy E=F+TS    =   -4240.92844005 Ry

     The total energy is F=E-TS. E is the sum of the following terms:
     one-electron contribution =    -164.32914233 Ry
     hartree contribution      =     115.62282514 Ry
     xc contribution           =    -201.39977430 Ry
     ewald contribution        =    -223.31438911 Ry
     one-center paw contrib.   =   -3767.50795945 Ry

     convergence has been achieved in  16 iterations

     Forces acting on atoms (cartesian axes, Ry/au):

     atom    1 type  1   force =     0.00000000   -0.02680787    0.00000000
     atom    2 type  1   force =     0.00000000    0.02680787    0.00000000
     atom    3 type  2   force =     0.00000000    0.00230076    0.00000000
     atom    4 type  2   force =     0.00000000   -0.00230076    0.00000000
     atom    5 type  2   force =     0.00000000    0.00592388   -0.00060824
     atom    6 type  2   force =     0.00000000   -0.00592388    0.00060824
     atom    7 type  2   force =     0.00000000    0.00592388    0.00060824
     atom    8 type  2   force =     0.00000000   -0.00592388   -0.00060824
     atom    9 type  2   force =     0.00000000    0.02023195    0.01359311
     atom   10 type  2   force =    -0.00000000   -0.02023195   -0.01359311
     atom   11 type  2   force =     0.00000000    0.02023195   -0.01359311
     atom   12 type  2   force =    -0.00000000   -0.02023195    0.01359311

     Total force =     0.062978     Total SCF correction =     0.000009


     Computing stress (Cartesian axis) and pressure

          total   stress  (Ry/bohr**3)                   (kbar)     P=       -5.12
  -0.00001662   0.00000000   0.00000000           -2.44        0.00        0.00
   0.00000000  -0.00003410   0.00000000            0.00       -5.02        0.00
   0.00000000   0.00000000  -0.00005361            0.00        0.00       -7.89

 
     init_run     :     19.42s CPU     20.26s WALL (       1 calls)
     electrons    :    915.05s CPU    925.72s WALL (       1 calls)
     forces       :      6.93s CPU      7.14s WALL (       1 calls)
     stress       :     44.55s CPU     45.19s WALL (       1 calls)

     Called by init_run:
     wfcinit      :     14.59s CPU     14.77s WALL (       1 calls)
     potinit      :      1.40s CPU      1.45s WALL (       1 calls)
     hinit0       :      1.80s CPU      2.10s WALL (       1 calls)

     Called by electrons:
     c_bands      :    763.03s CPU    766.47s WALL (      17 calls)
     sum_band     :    127.10s CPU    131.04s WALL (      17 calls)
     v_of_rho     :      5.63s CPU      5.92s WALL (      17 calls)
     newd         :     14.22s CPU     17.49s WALL (      17 calls)
     PAW_pot      :      5.55s CPU      5.56s WALL (      17 calls)
     mix_rho      :      0.82s CPU      0.84s WALL (      17 calls)

     Called by c_bands:
     init_us_2    :     10.37s CPU     10.44s WALL (    2331 calls)
     cegterg      :    693.22s CPU    696.13s WALL (    1071 calls)

     Called by *egterg:
     cdiaghg      :     27.17s CPU     27.24s WALL (    8020 calls)
     h_psi        :    525.53s CPU    528.20s WALL (    8146 calls)
     s_psi        :     43.18s CPU     43.27s WALL (    8146 calls)
     g_psi        :      1.96s CPU      1.98s WALL (    7012 calls)

     Called by h_psi:
     h_psi:calbec :     37.97s CPU     38.06s WALL (    8146 calls)
     vloc_psi     :    441.47s CPU    443.90s WALL (    8146 calls)
     add_vuspsi   :     43.18s CPU     43.26s WALL (    8146 calls)

     General routines
     calbec       :     50.98s CPU     51.10s WALL (    9532 calls)
     fft          :      3.58s CPU      3.98s WALL (     245 calls)
     ffts         :      0.09s CPU      0.09s WALL (      34 calls)
     fftw         :    412.76s CPU    414.99s WALL (  416084 calls)
     interpolate  :      0.32s CPU      0.33s WALL (      17 calls)
 
     Parallel routines
 
     PWSCF        :  16m26.14s CPU  16m38.60s WALL

 
   This run was terminated on:  15:41: 4  19Nov2021            

=------------------------------------------------------------------------------=
   JOB DONE.
=------------------------------------------------------------------------------=
