
     Program PWSCF v.6.8 starts on 19Nov2021 at 15:30:19 

     This program is part of the open-source Quantum ESPRESSO suite
     for quantum simulation of materials; please cite
         "P. Giannozzi et al., J. Phys.:Condens. Matter 21 395502 (2009);
         "P. Giannozzi et al., J. Phys.:Condens. Matter 29 465901 (2017);
         "P. Giannozzi et al., J. Chem. Phys. 152 154105 (2020);
          URL http://www.quantum-espresso.org", 
     in publications or presentations arising from this work. More details at
     http://www.quantum-espresso.org/quote

     Parallel version (MPI), running on    10 processors

     MPI processes distributed on     1 nodes
     R & G space division:  proc/nbgrp/npool/nimage =      10
     70679 MiB available memory on the printing compute node when the environment starts
 
     Waiting for input...
     Reading input from standard input

     Current dimensions of program PWSCF are:
     Max number of different atomic species (ntypx) = 10
     Max number of k-points (npk) =  40000
     Max angular momentum in pseudopotentials (lmaxx) =  4
     file Zr.pbe-spn-kjpaw_psl.1.0.0.UPF: wavefunction(s)  4S 4P renormalized
     file Te.pbe-n-kjpaw_psl.1.0.0.UPF: wavefunction(s)  5S 5P renormalized
     Message from routine setup:
     using ibrav=0 with symmetry is DISCOURAGED, use correct ibrav instead

     Subspace diagonalization in iterative solution of the eigenvalue problem:
     a serial algorithm will be used

 
     Parallelization info
     --------------------
     sticks:   dense  smooth     PW     G-vecs:    dense   smooth      PW
     Min         734     293     87               115340    29174    4753
     Max         735     295     88               115345    29176    4760
     Sum        7345    2937    873              1153415   291749   47557
 
     Using Slab Decomposition
 


     bravais-lattice index     =            0
     lattice parameter (alat)  =      15.5510  a.u.
     unit-cell volume          =    3018.5011 (a.u.)^3
     number of atoms/cell      =           12
     number of atomic types    =            2
     number of electrons       =        84.00
     number of Kohn-Sham states=           50
     kinetic-energy cutoff     =      80.0000  Ry
     charge density cutoff     =     800.0000  Ry
     scf convergence threshold =      1.0E-10
     mixing beta               =       0.7000
     number of iterations used =            8  plain     mixing
     Exchange-correlation= SLA  PW   PBX  PBC
                           (   1   4   3   4   0   0   0)

     celldm(1)=  15.551040  celldm(2)=   0.000000  celldm(3)=   0.000000
     celldm(4)=   0.000000  celldm(5)=   0.000000  celldm(6)=   0.000000

     crystal axes: (cart. coord. in units of alat)
               a(1) = (   0.246007  -0.969268   0.000000 )  
               a(2) = (   0.246007   0.969268   0.000000 )  
               a(3) = (   0.000000   0.000000   1.683031 )  

     reciprocal axes: (cart. coord. in units 2 pi/alat)
               b(1) = (  2.032465 -0.515853  0.000000 )  
               b(2) = (  2.032465  0.515853  0.000000 )  
               b(3) = (  0.000000  0.000000  0.594166 )  


     PseudoPot. # 1 for Zr read from file:
     pseudo/Zr.pbe-spn-kjpaw_psl.1.0.0.UPF
     MD5 check sum: 02112c41713a0468aff2bb39ef194e36
     Pseudo is Projector augmented-wave + core cor, Zval = 12.0
     Generated using &quot;atomic&quot; code by A. Dal Corso  v.6.2.2
     Shape of augmentation charge: PSQ
     Using radial grid of 1225 points,  6 beta functions with: 
                l(1) =   0
                l(2) =   0
                l(3) =   1
                l(4) =   1
                l(5) =   2
                l(6) =   2
     Q(r) pseudized with 0 coefficients 


     PseudoPot. # 2 for Te read from file:
     pseudo/Te.pbe-n-kjpaw_psl.1.0.0.UPF
     MD5 check sum: 66247bff2bd9dbf220fbb0bf5ab56e9d
     Pseudo is Projector augmented-wave + core cor, Zval =  6.0
     Generated using &quot;atomic&quot; code by A. Dal Corso  v.6.3
     Shape of augmentation charge: PSQ
     Using radial grid of 1245 points,  6 beta functions with: 
                l(1) =   0
                l(2) =   0
                l(3) =   1
                l(4) =   1
                l(5) =   2
                l(6) =   2
     Q(r) pseudized with 0 coefficients 


     atomic species   valence    mass     pseudopotential
        Zr            12.00    91.22000     Zr( 1.00)
        Te             6.00   127.60000     Te( 1.00)

      8 Sym. Ops., with inversion, found ( 4 have fractional translation)



   Cartesian axes

     site n.     atom                  positions (alat units)
         1           Zr  tau(   1) = (   0.0000000   0.6149704   0.4207578  )
         2           Zr  tau(   2) = (   0.2460067   0.3542978   1.2622733  )
         3           Te  tau(   3) = (   0.2460067   0.3344365   0.4207578  )
         4           Te  tau(   4) = (   0.0000000   0.6348316   1.2622733  )
         5           Te  tau(   5) = (   0.2460067   0.8055638   0.2491541  )
         6           Te  tau(   6) = (   0.0000000   0.1637043   1.4338769  )
         7           Te  tau(   7) = (   0.2460067   0.8055638   0.5923614  )
         8           Te  tau(   8) = (   0.0000000   0.1637043   1.0906697  )
         9           Te  tau(   9) = (   0.0000000   0.3984895   0.7152334  )
        10           Te  tau(  10) = (   0.2460067   0.5707786   0.9677976  )
        11           Te  tau(  11) = (   0.0000000   0.3984895   0.1262821  )
        12           Te  tau(  12) = (   0.2460067   0.5707786   1.5567489  )

     number of k points=    63  Methfessel-Paxton smearing, width (Ry)=  0.0030
                       cart. coord. in units 2pi/alat
        k(    1) = (   0.0000000   0.0000000   0.0000000), wk =   0.0078125
        k(    2) = (   0.0000000   0.0000000   0.1485415), wk =   0.0156250
        k(    3) = (   0.0000000   0.0000000  -0.2970830), wk =   0.0078125
        k(    4) = (   0.2540581   0.0644816   0.0000000), wk =   0.0312500
        k(    5) = (   0.2540581   0.0644816   0.1485415), wk =   0.0625000
        k(    6) = (   0.2540581   0.0644816  -0.2970830), wk =   0.0312500
        k(    7) = (   0.5081162   0.1289633   0.0000000), wk =   0.0312500
        k(    8) = (   0.5081162   0.1289633   0.1485415), wk =   0.0625000
        k(    9) = (   0.5081162   0.1289633  -0.2970830), wk =   0.0312500
        k(   10) = (   0.7621743   0.1934449   0.0000000), wk =   0.0312500
        k(   11) = (   0.7621743   0.1934449   0.1485415), wk =   0.0625000
        k(   12) = (   0.7621743   0.1934449  -0.2970830), wk =   0.0312500
        k(   13) = (  -1.0162324  -0.2579266   0.0000000), wk =   0.0156250
        k(   14) = (  -1.0162324  -0.2579266   0.1485415), wk =   0.0312500
        k(   15) = (  -1.0162324  -0.2579266  -0.2970830), wk =   0.0156250
        k(   16) = (   0.5081162   0.0000000   0.0000000), wk =   0.0156250
        k(   17) = (   0.5081162   0.0000000   0.1485415), wk =   0.0312500
        k(   18) = (   0.5081162   0.0000000  -0.2970830), wk =   0.0156250
        k(   19) = (   0.7621743   0.0644816   0.0000000), wk =   0.0312500
        k(   20) = (   0.7621743   0.0644816   0.1485415), wk =   0.0625000
        k(   21) = (   0.7621743   0.0644816  -0.2970830), wk =   0.0312500
        k(   22) = (   1.0162324   0.1289633   0.0000000), wk =   0.0312500
        k(   23) = (   1.0162324   0.1289633   0.1485415), wk =   0.0625000
        k(   24) = (   1.0162324   0.1289633  -0.2970830), wk =   0.0312500
        k(   25) = (  -0.7621743  -0.3224082   0.0000000), wk =   0.0312500
        k(   26) = (  -0.7621743  -0.3224082   0.1485415), wk =   0.0625000
        k(   27) = (  -0.7621743  -0.3224082  -0.2970830), wk =   0.0312500
        k(   28) = (  -0.5081162  -0.2579266   0.0000000), wk =   0.0312500
        k(   29) = (  -0.5081162  -0.2579266   0.1485415), wk =   0.0625000
        k(   30) = (  -0.5081162  -0.2579266  -0.2970830), wk =   0.0312500
        k(   31) = (  -0.2540581  -0.1934449   0.0000000), wk =   0.0312500
        k(   32) = (  -0.2540581  -0.1934449   0.1485415), wk =   0.0625000
        k(   33) = (  -0.2540581  -0.1934449  -0.2970830), wk =   0.0312500
        k(   34) = (   0.0000000  -0.1289633   0.0000000), wk =   0.0156250
        k(   35) = (   0.0000000  -0.1289633   0.1485415), wk =   0.0312500
        k(   36) = (   0.0000000  -0.1289633  -0.2970830), wk =   0.0156250
        k(   37) = (   1.0162324   0.0000000   0.0000000), wk =   0.0156250
        k(   38) = (   1.0162324   0.0000000   0.1485415), wk =   0.0312500
        k(   39) = (   1.0162324   0.0000000  -0.2970830), wk =   0.0156250
        k(   40) = (   1.2702905   0.0644816   0.0000000), wk =   0.0312500
        k(   41) = (   1.2702905   0.0644816   0.1485415), wk =   0.0625000
        k(   42) = (   1.2702905   0.0644816  -0.2970830), wk =   0.0312500
        k(   43) = (  -0.5081162  -0.3868899   0.0000000), wk =   0.0312500
        k(   44) = (  -0.5081162  -0.3868899   0.1485415), wk =   0.0625000
        k(   45) = (  -0.5081162  -0.3868899  -0.2970830), wk =   0.0312500
        k(   46) = (  -0.2540581  -0.3224082   0.0000000), wk =   0.0312500
        k(   47) = (  -0.2540581  -0.3224082   0.1485415), wk =   0.0625000
        k(   48) = (  -0.2540581  -0.3224082  -0.2970830), wk =   0.0312500
        k(   49) = (   0.0000000  -0.2579266   0.0000000), wk =   0.0156250
        k(   50) = (   0.0000000  -0.2579266   0.1485415), wk =   0.0312500
        k(   51) = (   0.0000000  -0.2579266  -0.2970830), wk =   0.0156250
        k(   52) = (   1.5243485   0.0000000   0.0000000), wk =   0.0156250
        k(   53) = (   1.5243485   0.0000000   0.1485415), wk =   0.0312500
        k(   54) = (   1.5243485   0.0000000  -0.2970830), wk =   0.0156250
        k(   55) = (  -0.2540581  -0.4513715   0.0000000), wk =   0.0312500
        k(   56) = (  -0.2540581  -0.4513715   0.1485415), wk =   0.0625000
        k(   57) = (  -0.2540581  -0.4513715  -0.2970830), wk =   0.0312500
        k(   58) = (   0.0000000  -0.3868899   0.0000000), wk =   0.0156250
        k(   59) = (   0.0000000  -0.3868899   0.1485415), wk =   0.0312500
        k(   60) = (   0.0000000  -0.3868899  -0.2970830), wk =   0.0156250
        k(   61) = (  -2.0324647   0.0000000   0.0000000), wk =   0.0078125
        k(   62) = (  -2.0324647   0.0000000   0.1485415), wk =   0.0156250
        k(   63) = (  -2.0324647   0.0000000  -0.2970830), wk =   0.0078125

     Dense  grid:  1153415 G-vectors     FFT dimensions: ( 144, 144, 240)

     Smooth grid:   291749 G-vectors     FFT dimensions: (  90,  90, 150)

     Estimated max dynamical RAM per process >     657.19 MB

     Estimated total dynamical RAM >       6.42 GB

     Initial potential from superposition of free atoms

     starting charge   83.99353, renormalised to   84.00000
     Starting wfcs are   66 randomized atomic wfcs
     Checking if some PAW data can be deallocated... 

     total cpu time spent up to now is       19.7 secs

     Self-consistent Calculation

     iteration #  1     ecut=    80.00 Ry     beta= 0.70
     Davidson diagonalization with overlap
     ethr =  1.00E-02,  avg # of iterations =  2.0

     Threshold (ethr) on eigenvalues was too large:
     Diagonalizing with lowered threshold

     Davidson diagonalization with overlap
     ethr =  3.62E-04,  avg # of iterations =  4.1

     total cpu time spent up to now is      105.8 secs

     total energy              =   -4240.70144466 Ry
     estimated scf accuracy    <       0.42282792 Ry

     iteration #  2     ecut=    80.00 Ry     beta= 0.70
     Davidson diagonalization with overlap
     ethr =  5.03E-04,  avg # of iterations =  7.3

     total cpu time spent up to now is      165.8 secs

     total energy              =   -4240.61434371 Ry
     estimated scf accuracy    <       2.16107796 Ry

     iteration #  3     ecut=    80.00 Ry     beta= 0.70
     Davidson diagonalization with overlap
     ethr =  5.03E-04,  avg # of iterations =  5.1

     total cpu time spent up to now is      217.4 secs

     total energy              =   -4240.89627389 Ry
     estimated scf accuracy    <       0.02430481 Ry

     iteration #  4     ecut=    80.00 Ry     beta= 0.70
     Davidson diagonalization with overlap
     c_bands:  1 eigenvalues not converged
     c_bands:  1 eigenvalues not converged
     c_bands:  1 eigenvalues not converged
     c_bands:  2 eigenvalues not converged
     c_bands:  1 eigenvalues not converged
     ethr =  2.89E-05,  avg # of iterations = 15.4

     total cpu time spent up to now is      304.1 secs

     total energy              =   -4240.91804091 Ry
     estimated scf accuracy    <       0.08787210 Ry

     iteration #  5     ecut=    80.00 Ry     beta= 0.70
     Davidson diagonalization with overlap
     ethr =  2.89E-05,  avg # of iterations =  3.6

     total cpu time spent up to now is      346.5 secs

     total energy              =   -4240.91911846 Ry
     estimated scf accuracy    <       0.02225515 Ry

     iteration #  6     ecut=    80.00 Ry     beta= 0.70
     Davidson diagonalization with overlap
     ethr =  2.65E-05,  avg # of iterations =  3.6

     total cpu time spent up to now is      386.9 secs

     total energy              =   -4240.92077892 Ry
     estimated scf accuracy    <       0.00233348 Ry

     iteration #  7     ecut=    80.00 Ry     beta= 0.70
     Davidson diagonalization with overlap
     c_bands:  1 eigenvalues not converged
     c_bands:  2 eigenvalues not converged
     c_bands:  2 eigenvalues not converged
     c_bands:  1 eigenvalues not converged
     c_bands:  2 eigenvalues not converged
     c_bands:  1 eigenvalues not converged
     c_bands:  2 eigenvalues not converged
     c_bands:  1 eigenvalues not converged
     c_bands:  2 eigenvalues not converged
     c_bands:  1 eigenvalues not converged
     c_bands:  2 eigenvalues not converged
     ethr =  2.78E-06,  avg # of iterations = 14.7

     total cpu time spent up to now is      461.5 secs

     total energy              =   -4240.92228595 Ry
     estimated scf accuracy    <       0.00263211 Ry

     iteration #  8     ecut=    80.00 Ry     beta= 0.70
     Davidson diagonalization with overlap
     ethr =  2.78E-06,  avg # of iterations =  2.9

     total cpu time spent up to now is      499.1 secs

     total energy              =   -4240.92229165 Ry
     estimated scf accuracy    <       0.00056926 Ry

     iteration #  9     ecut=    80.00 Ry     beta= 0.70
     Davidson diagonalization with overlap
     c_bands:  1 eigenvalues not converged
     ethr =  6.78E-07,  avg # of iterations =  6.2

     total cpu time spent up to now is      544.9 secs

     total energy              =   -4240.92240286 Ry
     estimated scf accuracy    <       0.00000892 Ry

     iteration # 10     ecut=    80.00 Ry     beta= 0.70
     Davidson diagonalization with overlap
     c_bands:  1 eigenvalues not converged
     c_bands:  1 eigenvalues not converged
     ethr =  1.06E-08,  avg # of iterations = 11.2

     total cpu time spent up to now is      620.0 secs

     total energy              =   -4240.92242625 Ry
     estimated scf accuracy    <       0.00002372 Ry

     iteration # 11     ecut=    80.00 Ry     beta= 0.70
     Davidson diagonalization with overlap
     ethr =  1.06E-08,  avg # of iterations =  3.3

     total cpu time spent up to now is      662.5 secs

     total energy              =   -4240.92242854 Ry
     estimated scf accuracy    <       0.00000090 Ry

     iteration # 12     ecut=    80.00 Ry     beta= 0.70
     Davidson diagonalization with overlap
     ethr =  1.08E-09,  avg # of iterations =  8.0

     total cpu time spent up to now is      721.8 secs

     total energy              =   -4240.92242905 Ry
     estimated scf accuracy    <       0.00000063 Ry

     iteration # 13     ecut=    80.00 Ry     beta= 0.70
     Davidson diagonalization with overlap
     ethr =  7.46E-10,  avg # of iterations =  2.3

     total cpu time spent up to now is      759.6 secs

     total energy              =   -4240.92242911 Ry
     estimated scf accuracy    <       0.00000003 Ry

     iteration # 14     ecut=    80.00 Ry     beta= 0.70
     Davidson diagonalization with overlap
     c_bands:  1 eigenvalues not converged
     ethr =  4.09E-11,  avg # of iterations =  8.4

     total cpu time spent up to now is      822.2 secs

     total energy              =   -4240.92242913 Ry
     estimated scf accuracy    <       0.00000004 Ry

     iteration # 15     ecut=    80.00 Ry     beta= 0.70
     Davidson diagonalization with overlap
     ethr =  4.09E-11,  avg # of iterations =  2.1

     total cpu time spent up to now is      859.2 secs

     total energy              =   -4240.92242913 Ry
     estimated scf accuracy    <          6.4E-09 Ry

     iteration # 16     ecut=    80.00 Ry     beta= 0.70
     Davidson diagonalization with overlap
     ethr =  7.64E-12,  avg # of iterations =  6.1

     total cpu time spent up to now is      911.3 secs

     total energy              =   -4240.92242914 Ry
     estimated scf accuracy    <          2.8E-09 Ry

     iteration # 17     ecut=    80.00 Ry     beta= 0.70
     Davidson diagonalization with overlap
     ethr =  3.32E-12,  avg # of iterations =  1.3

     total cpu time spent up to now is      946.2 secs

     total energy              =   -4240.92242914 Ry
     estimated scf accuracy    <          9.9E-10 Ry

     iteration # 18     ecut=    80.00 Ry     beta= 0.70
     Davidson diagonalization with overlap
     ethr =  1.18E-12,  avg # of iterations =  3.0

     total cpu time spent up to now is      985.3 secs

     total energy              =   -4240.92242914 Ry
     estimated scf accuracy    <          2.4E-10 Ry

     iteration # 19     ecut=    80.00 Ry     beta= 0.70
     Davidson diagonalization with overlap
     ethr =  2.90E-13,  avg # of iterations =  7.7

     total cpu time spent up to now is     1043.4 secs

     total energy              =   -4240.92242914 Ry
     estimated scf accuracy    <          3.4E-10 Ry

     iteration # 20     ecut=    80.00 Ry     beta= 0.70
     Davidson diagonalization with overlap
     ethr =  2.90E-13,  avg # of iterations =  2.1

     total cpu time spent up to now is     1080.1 secs

     End of self-consistent calculation

          k = 0.0000 0.0000 0.0000 ( 36359 PWs)   bands (ev):

   -44.1745 -44.1745 -22.3265 -22.3265 -22.2145 -22.2145 -22.0936 -22.0935
    -7.6229  -7.2268  -6.7653  -6.7213  -6.6984  -5.2044  -5.1954  -4.9503
    -4.8901  -3.8625   0.4960   0.6233   0.8262   1.0168   1.4559   1.6564
     2.3837   2.5210   2.5920   2.9866   3.0095   3.0795   3.3061   3.4558
     3.4822   3.5001   3.8722   4.0124   4.0345   4.2611   4.3054   4.6162
     5.3743   5.4967   5.5013   5.5475   5.8949   6.1125   6.4964   6.7260
     6.9291   7.4812

          k = 0.0000 0.0000 0.1485 ( 36415 PWs)   bands (ev):

   -44.1745 -44.1745 -22.3265 -22.3265 -22.2145 -22.2145 -22.0936 -22.0935
    -7.5856  -7.3247  -6.7778  -6.7699  -6.4703  -5.6625  -4.9787  -4.9043
    -4.6957  -3.9759   0.5226   0.6617   0.8956   1.0640   1.0892   2.1035
     2.1482   2.4023   2.4996   3.0245   3.0898   3.2124   3.2463   3.3335
     3.6327   3.6909   3.8100   3.9737   4.0180   4.2799   4.3162   4.6440
     5.0235   5.0778   5.6517   5.9203   6.0927   6.1349   6.5478   6.7495
     6.7762   7.3149

          k = 0.0000 0.0000-0.2971 ( 36410 PWs)   bands (ev):

   -44.1745 -44.1745 -22.3265 -22.3265 -22.2145 -22.2145 -22.0936 -22.0936
    -7.4784  -7.4784  -6.7790  -6.7790  -6.1001  -6.1001  -4.9390  -4.9390
    -4.2803  -4.2803   0.6744   0.6744   0.8142   0.8142   1.5283   1.5283
     2.4495   2.4495   2.7104   2.7104   3.1284   3.1284   3.2703   3.2703
     3.8000   3.8000   3.8410   3.8410   4.3012   4.3012   4.4434   4.4434
     4.7593   4.7593   5.9425   5.9425   6.2908   6.2908   6.3965   6.3965
     7.2127   7.2128

          k = 0.2541 0.0645 0.0000 ( 36396 PWs)   bands (ev):

   -44.1741 -44.1741 -22.3246 -22.3246 -22.2247 -22.2247 -22.0923 -22.0922
    -7.5089  -7.1313  -6.7209  -6.6454  -6.6250  -5.1787  -5.1727  -4.9109
    -4.8499  -3.9964   0.5841   0.7625   0.9653   1.1326   1.2023   1.5626
     1.9574   2.1635   2.2661   2.4963   2.5998   2.9200   3.5391   3.5789
     3.6151   3.6821   3.6848   3.8748   4.0506   4.1150   4.1693   4.2935
     4.4528   4.7994   5.6054   6.0238   6.3442   6.5388   6.5887   6.8074
     7.0137   7.1565

          k = 0.2541 0.0645 0.1485 ( 36423 PWs)   bands (ev):

   -44.1741 -44.1741 -22.3246 -22.3246 -22.2247 -22.2247 -22.0923 -22.0922
    -7.4726  -7.2215  -6.7269  -6.7209  -6.3865  -5.6067  -4.9545  -4.8663
    -4.6986  -4.0873   0.5990   0.8034   0.9640   1.0071   1.1434   1.6533
     1.8964   2.2335   2.5101   2.5928   2.6165   2.8902   3.2266   3.3170
     3.5746   3.7003   3.7783   3.8552   3.9643   4.0634   4.2124   4.2652
     4.7278   5.1398   5.7370   5.8226   6.2299   6.2914   6.5075   6.6424
     7.2483   7.2900

          k = 0.2541 0.0645-0.2971 ( 36436 PWs)   bands (ev):

   -44.1741 -44.1741 -22.3246 -22.3246 -22.2247 -22.2247 -22.0923 -22.0923
    -7.3685  -7.3685  -6.7318  -6.7318  -6.0251  -6.0251  -4.9063  -4.9063
    -4.3400  -4.3400   0.7146   0.7146   0.9096   0.9096   1.3612   1.3612
     2.2223   2.2223   2.6245   2.6245   2.7985   2.7985   3.0712   3.0712
     3.5505   3.5505   3.8212   3.8212   3.9691   3.9691   4.2588   4.2588
     5.2755   5.2755   5.7357   5.7357   6.0276   6.0276   6.5052   6.5052
     7.4119   7.4119

          k = 0.5081 0.1290 0.0000 ( 36499 PWs)   bands (ev):

   -44.1732 -44.1732 -22.3198 -22.3198 -22.2493 -22.2493 -22.0891 -22.0890
    -7.1920  -6.9012  -6.5930  -6.4673  -6.3508  -5.1548  -5.1500  -4.8065
    -4.7509  -4.4028   0.4440   0.7648   0.8694   1.1390   1.3693   1.4656
     1.6350   1.7413   1.9602   2.1734   2.2025   2.2649   2.6903   3.1173
     3.2700   3.3738   3.4107   3.5310   3.7689   3.8098   4.0301   4.1476
     4.8059   5.2831   5.4494   5.7785   5.8477   6.5044   6.5214   6.7809
     7.3228   7.5224

          k = 0.5081 0.1290 0.1485 ( 36476 PWs)   bands (ev):

   -44.1732 -44.1732 -22.3198 -22.3198 -22.2493 -22.2493 -22.0891 -22.0890
    -7.1599  -6.9575  -6.5954  -6.5567  -6.1447  -5.4758  -4.9466  -4.7800
    -4.7140  -4.4356   0.4789   0.7785   0.9788   1.1003   1.1795   1.4079
     1.4632   1.6856   2.0404   2.0584   2.3465   2.6075   2.9338   3.1658
     3.2538   3.3745   3.4527   3.5571   3.5971   3.8353   3.8527   4.2065
     4.4731   4.6538   5.9367   6.0051   6.2280   6.5228   6.5612   6.6839
     7.1795   7.4774

          k = 0.5081 0.1290-0.2971 ( 36466 PWs)   bands (ev):

   -44.1732 -44.1732 -22.3198 -22.3198 -22.2493 -22.2493 -22.0891 -22.0891
    -7.0708  -7.0708  -6.5929  -6.5929  -5.8240  -5.8240  -4.8502  -4.8502
    -4.5436  -4.5436   0.6218   0.6218   1.1091   1.1091   1.2661   1.2661
     1.3693   1.3693   2.0580   2.0580   2.8282   2.8282   3.0596   3.0596
     3.2729   3.2729   3.5238   3.5238   3.7275   3.7275   3.9017   3.9017
     4.3009   4.3009   6.1547   6.1547   6.5197   6.5197   6.7479   6.7479
     7.0908   7.0908

          k = 0.7622 0.1934 0.0000 ( 36521 PWs)   bands (ev):

   -44.1723 -44.1723 -22.3149 -22.3149 -22.2739 -22.2739 -22.0859 -22.0859
    -6.8143  -6.7097  -6.3265  -6.1047  -5.9507  -5.2755  -5.2397  -5.0311
    -4.6859  -4.6508  -0.0102   0.3715   0.6667   1.1711   1.1852   1.2136
     1.4766   1.5781   1.8933   1.9459   2.2376   2.5067   2.5781   2.6783
     2.7213   3.2429   3.2565   3.2953   3.6328   3.6547   3.7806   3.9393
     4.0658   4.5856   5.7345   6.1043   6.1771   6.5661   6.6524   6.7340
     7.1460   7.6290

          k = 0.7622 0.1934 0.1485 ( 36503 PWs)   bands (ev):

   -44.1723 -44.1723 -22.3149 -22.3149 -22.2739 -22.2739 -22.0859 -22.0859
    -6.7980  -6.7232  -6.3191  -6.2012  -5.8042  -5.3928  -5.1750  -5.0539
    -4.6735  -4.6501   0.0771   0.4632   0.5663   0.9650   1.1673   1.2146
     1.4924   1.5945   1.7569   2.0907   2.1293   2.6219   2.6576   2.8116
     2.8586   3.1944   3.2756   3.3499   3.4311   3.6741   3.7150   3.8524
     4.0391   4.9183   5.2340   6.1690   6.4746   6.5011   6.6403   6.8645
     6.9259   7.3926

          k = 0.7622 0.1934-0.2971 ( 36522 PWs)   bands (ev):

   -44.1723 -44.1723 -22.3149 -22.3149 -22.2739 -22.2739 -22.0859 -22.0859
    -6.7593  -6.7593  -6.2851  -6.2851  -5.5874  -5.5874  -5.1091  -5.1090
    -4.6557  -4.6557   0.2999   0.2999   0.7520   0.7520   1.0537   1.0537
     1.5688   1.5688   1.9418   1.9418   2.3869   2.3869   2.8023   2.8023
     2.9857   2.9857   3.4497   3.4497   3.5500   3.5500   3.7537   3.7537
     4.2640   4.2640   5.9152   5.9152   6.3227   6.3227   6.7209   6.7209
     7.2402   7.2402

          k =-1.0162-0.2579 0.0000 ( 36506 PWs)   bands (ev):

   -44.1719 -44.1719 -22.3127 -22.3127 -22.2842 -22.2842 -22.0845 -22.0845
    -6.6728  -6.6524  -5.7905  -5.7861  -5.5939  -5.5873  -5.5397  -5.5223
    -4.6263  -4.6136   0.1152   0.1441   0.4732   0.4890   1.0099   1.0154
     1.4717   1.6761   2.2040   2.2920   2.2961   2.3005   2.8170   2.8535
     2.8651   3.0150   3.2535   3.2578   3.3314   3.4636   3.5930   3.7148
     3.8476   3.9200   6.2730   6.3108   6.3775   6.4646   6.8885   6.9216
     6.9407   6.9432

          k =-1.0162-0.2579 0.1485 ( 36506 PWs)   bands (ev):

   -44.1719 -44.1719 -22.3127 -22.3127 -22.2842 -22.2842 -22.0845 -22.0845
    -6.6693  -6.6548  -5.7838  -5.7805  -5.6511  -5.6445  -5.4785  -5.4683
    -4.6328  -4.6240   0.0403   0.0506   0.6663   0.6677   1.0457   1.0741
     1.4557   1.5489   1.9271   1.9668   2.3340   2.3425   2.7762   2.8012
     2.9387   2.9722   3.2239   3.2613   3.4856   3.5558   3.6857   3.7448
     4.1586   4.1877   5.8066   5.8090   6.3187   6.3865   6.7538   6.7961
     7.1684   7.1835

          k =-1.0162-0.2579-0.2971 ( 36528 PWs)   bands (ev):

   -44.1719 -44.1719 -22.3127 -22.3127 -22.2842 -22.2842 -22.0845 -22.0845
    -6.6615  -6.6615  -5.7732  -5.7732  -5.6843  -5.6843  -5.4390  -5.4390
    -4.6370  -4.6370  -0.0081  -0.0081   0.8592   0.8592   1.1549   1.1549
     1.3941   1.3941   1.6710   1.6710   2.3390   2.3390   2.8039   2.8039
     2.9229   2.9229   3.2720   3.2720   3.5368   3.5368   3.7577   3.7577
     4.7931   4.7931   5.1075   5.1075   6.2934   6.2934   6.7794   6.7794
     7.2211   7.2211

          k = 0.5081 0.0000 0.0000 ( 36503 PWs)   bands (ev):

   -44.1732 -44.1732 -22.3198 -22.3198 -22.2493 -22.2493 -22.0891 -22.0890
    -7.1988  -6.9052  -6.5842  -6.4615  -6.3524  -5.1559  -5.1458  -4.8035
    -4.7549  -4.4024   0.4412   0.7637   0.8767   1.1038   1.3653   1.4457
     1.6428   1.7431   1.9707   2.1377   2.2075   2.2351   2.7004   3.0975
     3.2703   3.3734   3.4648   3.5657   3.7768   3.7950   4.0608   4.1861
     4.8083   5.2892   5.4619   5.8026   5.8292   6.4650   6.4701   6.8161
     7.3555   7.5300

          k = 0.5081 0.0000 0.1485 ( 36453 PWs)   bands (ev):

   -44.1732 -44.1732 -22.3198 -22.3198 -22.2493 -22.2493 -22.0891 -22.0890
    -7.1666  -6.9630  -6.5862  -6.5501  -6.1460  -5.4769  -4.9393  -4.7813
    -4.7159  -4.4363   0.4756   0.7735   0.9857   1.1024   1.1475   1.3912
     1.4599   1.6856   2.0414   2.0508   2.3381   2.5836   2.9242   3.1535
     3.2464   3.4044   3.4876   3.5865   3.5883   3.8540   3.8672   4.2408
     4.4893   4.6587   5.9428   6.0199   6.2292   6.4713   6.5275   6.7131
     7.2070   7.4792

          k = 0.5081 0.0000-0.2971 ( 36452 PWs)   bands (ev):

   -44.1732 -44.1732 -22.3198 -22.3198 -22.2493 -22.2493 -22.0891 -22.0891
    -7.0773  -7.0773  -6.5843  -6.5843  -5.8256  -5.8256  -4.8458  -4.8458
    -4.5461  -4.5461   0.6166   0.6166   1.1104   1.1104   1.2566   1.2566
     1.3560   1.3560   2.0563   2.0563   2.8182   2.8182   3.0321   3.0321
     3.2660   3.2660   3.5902   3.5902   3.7301   3.7301   3.9049   3.9049
     4.3278   4.3278   6.1694   6.1694   6.4872   6.4872   6.7604   6.7604
     7.0930   7.0930

          k = 0.7622 0.0645 0.0000 ( 36505 PWs)   bands (ev):

   -44.1723 -44.1723 -22.3149 -22.3149 -22.2739 -22.2739 -22.0859 -22.0859
    -6.8241  -6.7086  -6.3166  -6.1033  -5.9543  -5.2758  -5.2333  -5.0310
    -4.6820  -4.6563  -0.0174   0.3836   0.6943   1.1624   1.2170   1.2328
     1.4296   1.5341   1.8666   1.9526   2.1755   2.4963   2.5674   2.6649
     2.6802   3.2887   3.2945   3.3129   3.5804   3.6747   3.8417   3.9692
     4.0829   4.6316   5.7336   6.1123   6.1430   6.5284   6.6893   6.7098
     7.1746   7.6286

          k = 0.7622 0.0645 0.1485 ( 36509 PWs)   bands (ev):

   -44.1723 -44.1723 -22.3149 -22.3149 -22.2739 -22.2739 -22.0859 -22.0859
    -6.8068  -6.7243  -6.3097  -6.1980  -5.8075  -5.3935  -5.1697  -5.0528
    -4.6709  -4.6540   0.0724   0.4718   0.5757   0.9917   1.1893   1.2041
     1.4500   1.6050   1.7556   2.0285   2.0543   2.6151   2.6537   2.7801
     2.8574   3.1922   3.3469   3.3714   3.3959   3.6956   3.7522   3.8700
     4.0899   4.9174   5.2623   6.1573   6.4683   6.4795   6.6576   6.8673
     6.9141   7.4105

          k = 0.7622 0.0645-0.2971 ( 36472 PWs)   bands (ev):

   -44.1723 -44.1723 -22.3149 -22.3149 -22.2739 -22.2739 -22.0859 -22.0859
    -6.7649  -6.7649  -6.2779  -6.2779  -5.5899  -5.5899  -5.1057  -5.1057
    -4.6562  -4.6562   0.3010   0.3010   0.7496   0.7496   1.0809   1.0809
     1.5666   1.5666   1.8819   1.8819   2.3550   2.3550   2.7868   2.7868
     2.9878   2.9878   3.5148   3.5148   3.5553   3.5553   3.7505   3.7505
     4.2886   4.2886   5.9384   5.9384   6.3235   6.3235   6.6858   6.6858
     7.2659   7.2659

          k = 1.0162 0.1290 0.0000 ( 36514 PWs)   bands (ev):

   -44.1719 -44.1719 -22.3127 -22.3127 -22.2842 -22.2842 -22.0845 -22.0845
    -6.6728  -6.6524  -5.7900  -5.7866  -5.5946  -5.5867  -5.5397  -5.5223
    -4.6263  -4.6136   0.1096   0.1498   0.4665   0.4959   1.0049   1.0227
     1.4765   1.6675   2.2091   2.2728   2.2935   2.3039   2.8219   2.8571
     2.8910   3.0077   3.2157   3.2888   3.3382   3.4639   3.5783   3.7180
     3.8584   3.9073   6.2756   6.3101   6.3729   6.4695   6.8941   6.9250
     6.9395   6.9455

          k = 1.0162 0.1290 0.1485 ( 36524 PWs)   bands (ev):

   -44.1719 -44.1719 -22.3127 -22.3127 -22.2842 -22.2842 -22.0845 -22.0845
    -6.6693  -6.6548  -5.7834  -5.7809  -5.6516  -5.6440  -5.4786  -5.4682
    -4.6328  -4.6240   0.0384   0.0521   0.6629   0.6717   1.0502   1.0712
     1.4592   1.5484   1.9184   1.9687   2.3255   2.3381   2.7404   2.8474
     2.9614   2.9791   3.1993   3.2629   3.4878   3.5825   3.6776   3.7158
     4.1659   4.1856   5.7933   5.8241   6.3162   6.3888   6.7603   6.7960
     7.1705   7.1812

          k = 1.0162 0.1290-0.2971 ( 36516 PWs)   bands (ev):

   -44.1719 -44.1719 -22.3127 -22.3127 -22.2842 -22.2842 -22.0845 -22.0845
    -6.6615  -6.6615  -5.7732  -5.7732  -5.6843  -5.6843  -5.4390  -5.4390
    -4.6370  -4.6370  -0.0083  -0.0083   0.8586   0.8586   1.1591   1.1591
     1.3918   1.3918   1.6713   1.6713   2.3285   2.3285   2.7866   2.7866
     2.9675   2.9675   3.2545   3.2545   3.5445   3.5445   3.7478   3.7478
     4.7932   4.7932   5.1092   5.1092   6.2932   6.2932   6.7822   6.7822
     7.2207   7.2207

          k =-0.7622-0.3224 0.0000 ( 36511 PWs)   bands (ev):

   -44.1723 -44.1723 -22.3149 -22.3149 -22.2739 -22.2739 -22.0859 -22.0859
    -6.7985  -6.7129  -6.3405  -6.1069  -5.9456  -5.2751  -5.2488  -5.0313
    -4.6894  -4.6452   0.0001   0.3549   0.6303   1.1613   1.1830   1.1934
     1.4970   1.6517   1.9385   1.9411   2.3302   2.5236   2.5962   2.7037
     2.7633   3.1460   3.2157   3.3304   3.6100   3.6486   3.7312   3.8944
     4.0406   4.5134   5.7364   6.1092   6.2151   6.5713   6.6234   6.8017
     7.1011   7.6329

          k =-0.7622-0.3224 0.1485 ( 36492 PWs)   bands (ev):

   -44.1723 -44.1723 -22.3149 -22.3149 -22.2739 -22.2739 -22.0859 -22.0859
    -6.7841  -6.7227  -6.3326  -6.2061  -5.7996  -5.3919  -5.1824  -5.0554
    -4.6757  -4.6461   0.0835   0.4527   0.5510   0.9372   1.1457   1.2229
     1.5509   1.5851   1.7451   2.1847   2.2424   2.6310   2.6694   2.8395
     2.8651   3.1723   3.2210   3.3300   3.4669   3.6200   3.6787   3.8194
     3.9562   4.9185   5.1958   6.1886   6.4621   6.5244   6.6392   6.8781
     6.9380   7.3629

          k =-0.7622-0.3224-0.2971 ( 36508 PWs)   bands (ev):

   -44.1723 -44.1723 -22.3149 -22.3149 -22.2739 -22.2739 -22.0859 -22.0859
    -6.7511  -6.7511  -6.2957  -6.2957  -5.5838  -5.5838  -5.1138  -5.1138
    -4.6549  -4.6549   0.2978   0.2978   0.7554   0.7554   1.0234   1.0234
     1.5698   1.5698   2.0163   2.0163   2.4441   2.4441   2.8291   2.8291
     2.9816   2.9816   3.3576   3.3576   3.5524   3.5524   3.7369   3.7369
     4.2295   4.2295   5.8842   5.8842   6.3197   6.3197   6.7815   6.7815
     7.1966   7.1966

          k =-0.5081-0.2579 0.0000 ( 36480 PWs)   bands (ev):

   -44.1732 -44.1732 -22.3198 -22.3198 -22.2493 -22.2493 -22.0891 -22.0890
    -7.1745  -6.8920  -6.6136  -6.4827  -6.3467  -5.1602  -5.1523  -4.8109
    -4.7437  -4.4037   0.4518   0.7613   0.8530   1.2385   1.3776   1.5190
     1.6232   1.7348   1.9439   2.2165   2.2355   2.3101   2.6695   3.1719
     3.2731   3.2867   3.3817   3.4231   3.7396   3.8195   3.9863   4.0687
     4.7980   5.2709   5.4059   5.7299   5.8949   6.6005   6.6411   6.6966
     7.2437   7.5090

          k =-0.5081-0.2579 0.1485 ( 36485 PWs)   bands (ev):

   -44.1732 -44.1732 -22.3198 -22.3198 -22.2493 -22.2493 -22.0891 -22.0890
    -7.1425  -6.9440  -6.6171  -6.5747  -6.1414  -5.4732  -4.9629  -4.7786
    -4.7089  -4.4339   0.4873   0.7855   0.9637   1.0956   1.2686   1.4297
     1.4966   1.6794   2.0462   2.0728   2.3627   2.6640   2.9536   3.1989
     3.2620   3.2733   3.4251   3.4515   3.6085   3.7987   3.8335   4.1324
     4.4260   4.6427   5.9072   5.9850   6.2258   6.6127   6.6401   6.6530
     7.1116   7.4764

          k =-0.5081-0.2579-0.2971 ( 36478 PWs)   bands (ev):

   -44.1732 -44.1732 -22.3198 -22.3198 -22.2493 -22.2493 -22.0891 -22.0891
    -7.0541  -7.0541  -6.6146  -6.6146  -5.8199  -5.8199  -4.8606  -4.8606
    -4.5378  -4.5378   0.6334   0.6334   1.1043   1.1043   1.2770   1.2770
     1.4218   1.4218   2.0619   2.0619   2.8529   2.8529   3.1327   3.1327
     3.2881   3.2881   3.3688   3.3688   3.7106   3.7106   3.8940   3.8940
     4.2332   4.2332   6.1166   6.1166   6.5887   6.5887   6.7277   6.7277
     7.0884   7.0884

          k =-0.2541-0.1934 0.0000 ( 36410 PWs)   bands (ev):

   -44.1741 -44.1741 -22.3246 -22.3246 -22.2247 -22.2247 -22.0923 -22.0922
    -7.4964  -7.1181  -6.7392  -6.6632  -6.6221  -5.1864  -5.1704  -4.9172
    -4.8422  -3.9975   0.6190   0.8395   0.9754   1.1536   1.2333   1.5645
     1.9760   2.1710   2.2835   2.4580   2.5728   2.9924   3.3988   3.4678
     3.5462   3.6856   3.7362   3.8873   4.0520   4.0628   4.1423   4.2620
     4.3949   4.7638   5.6501   6.0345   6.3707   6.5439   6.6012   6.8341
     7.0131   7.0853

          k =-0.2541-0.1934 0.1485 ( 36427 PWs)   bands (ev):

   -44.1741 -44.1741 -22.3246 -22.3246 -22.2247 -22.2247 -22.0923 -22.0922
    -7.4600  -7.2081  -6.7487  -6.7333  -6.3860  -5.6044  -4.9716  -4.8630
    -4.6922  -4.0869   0.6270   0.8682   0.9963   1.0506   1.1495   1.6702
     1.8954   2.2377   2.4782   2.5672   2.6435   2.9137   3.2206   3.3219
     3.4410   3.5994   3.7818   3.8682   3.9550   4.0499   4.1496   4.2181
     4.7031   5.1152   5.7460   5.8100   6.1944   6.3143   6.5940   6.6697
     7.2425   7.2447

          k =-0.2541-0.1934-0.2971 ( 36422 PWs)   bands (ev):

   -44.1741 -44.1741 -22.3246 -22.3246 -22.2247 -22.2247 -22.0923 -22.0923
    -7.3556  -7.3556  -6.7497  -6.7497  -6.0226  -6.0226  -4.9133  -4.9133
    -4.3367  -4.3367   0.7344   0.7344   0.9758   0.9758   1.3709   1.3709
     2.2205   2.2205   2.5856   2.5856   2.8191   2.8191   3.1007   3.1007
     3.4451   3.4451   3.8022   3.8022   3.9645   3.9645   4.2020   4.2020
     5.2570   5.2570   5.7030   5.7030   6.0121   6.0121   6.5936   6.5936
     7.3957   7.3958

          k = 0.0000-0.1290 0.0000 ( 36417 PWs)   bands (ev):

   -44.1745 -44.1745 -22.3265 -22.3265 -22.2145 -22.2145 -22.0936 -22.0935
    -7.6163  -7.2192  -6.7759  -6.7198  -6.7084  -5.2083  -5.1943  -4.9551
    -4.8849  -3.8632   0.5257   0.6663   0.8325   1.0175   1.4790   1.6662
     2.3879   2.5279   2.5884   2.9934   3.0506   3.0729   3.3033   3.3805
     3.4306   3.4719   3.8290   4.0123   4.0257   4.2074   4.2575   4.6186
     5.3683   5.4969   5.5036   5.5272   5.9053   6.1507   6.5473   6.6916
     6.9303   7.4517

          k = 0.0000-0.1290 0.1485 ( 36419 PWs)   bands (ev):

   -44.1745 -44.1745 -22.3265 -22.3265 -22.2145 -22.2145 -22.0936 -22.0935
    -7.5790  -7.3174  -6.7895  -6.7765  -6.4708  -5.6613  -4.9888  -4.9018
    -4.6923  -3.9758   0.5478   0.7044   0.9100   1.0719   1.0977   2.1123
     2.1629   2.4069   2.5060   3.0502   3.0833   3.1973   3.2070   3.2783
     3.6258   3.6920   3.7606   3.9724   3.9785   4.2339   4.2727   4.6464
     5.0238   5.0618   5.6567   5.9215   6.1002   6.1349   6.5387   6.7773
     6.7971   7.4273

          k = 0.0000-0.1290-0.2971 ( 36464 PWs)   bands (ev):

   -44.1745 -44.1745 -22.3265 -22.3265 -22.2145 -22.2145 -22.0936 -22.0936
    -7.4715  -7.4715  -6.7887  -6.7887  -6.0989  -6.0989  -4.9427  -4.9427
    -4.2786  -4.2786   0.7125   0.7125   0.8214   0.8214   1.5387   1.5387
     2.4549   2.4549   2.7211   2.7211   3.1221   3.1221   3.2213   3.2213
     3.7838   3.7838   3.8368   3.8368   4.2229   4.2229   4.4528   4.4528
     4.7612   4.7612   5.9219   5.9219   6.3111   6.3111   6.3975   6.3975
     7.2237   7.2237

          k = 1.0162 0.0000 0.0000 ( 36499 PWs)   bands (ev):

   -44.1719 -44.1719 -22.3127 -22.3127 -22.2842 -22.2842 -22.0845 -22.0845
    -6.6728  -6.6524  -5.7893  -5.7873  -5.5952  -5.5861  -5.5398  -5.5223
    -4.6263  -4.6136   0.1053   0.1542   0.4621   0.5005   1.0027   1.0271
     1.4818   1.6583   2.2182   2.2508   2.2921   2.3060   2.8313   2.8444
     2.9356   2.9938   3.1981   3.2969   3.3477   3.4593   3.5670   3.7236
     3.8680   3.8930   6.2784   6.3092   6.3686   6.4741   6.9003   6.9284
     6.9376   6.9480

          k = 1.0162 0.0000 0.1485 ( 36485 PWs)   bands (ev):

   -44.1719 -44.1719 -22.3127 -22.3127 -22.2842 -22.2842 -22.0845 -22.0845
    -6.6693  -6.6548  -5.7828  -5.7815  -5.6520  -5.6437  -5.4787  -5.4681
    -4.6328  -4.6240   0.0368   0.0533   0.6614   0.6738   1.0578   1.0651
     1.4630   1.5477   1.9101   1.9701   2.3185   2.3331   2.7264   2.8634
     2.9744   3.0142   3.1652   3.2633   3.4905   3.6382   3.6574   3.6694
     4.1780   4.1785   5.7878   5.8314   6.3140   6.3911   6.7675   6.7953
     7.1752   7.1765

          k = 1.0162 0.0000-0.2971 ( 36514 PWs)   bands (ev):

   -44.1719 -44.1719 -22.3127 -22.3127 -22.2842 -22.2842 -22.0845 -22.0845
    -6.6615  -6.6615  -5.7731  -5.7731  -5.6843  -5.6843  -5.4390  -5.4390
    -4.6370  -4.6370  -0.0084  -0.0084   0.8580   0.8580   1.1633   1.1633
     1.3895   1.3895   1.6717   1.6717   2.3185   2.3185   2.7752   2.7752
     3.0104   3.0104   3.2327   3.2327   3.5526   3.5526   3.7373   3.7373
     4.7932   4.7932   5.1110   5.1110   6.2931   6.2931   6.7851   6.7851
     7.2203   7.2203

          k = 1.2703 0.0645 0.0000 ( 36468 PWs)   bands (ev):

   -44.1723 -44.1723 -22.3149 -22.3149 -22.2739 -22.2739 -22.0859 -22.0859
    -6.7850  -6.7173  -6.3505  -6.1086  -5.9418  -5.2748  -5.2553  -5.0315
    -4.6910  -4.6420   0.0076   0.3435   0.6060   1.1596   1.1737   1.1910
     1.4983   1.7059   1.9346   1.9785   2.3900   2.5550   2.6105   2.7234
     2.7848   3.0521   3.2126   3.4133   3.5329   3.5621   3.7772   3.8604
     4.0231   4.4550   5.7382   6.1194   6.2392   6.5144   6.6677   6.8555
     7.0630   7.5465

          k = 1.2703 0.0645 0.1485 ( 36490 PWs)   bands (ev):

   -44.1723 -44.1723 -22.3149 -22.3149 -22.2739 -22.2739 -22.0859 -22.0859
    -6.7724  -6.7239  -6.3423  -6.2097  -5.7962  -5.3913  -5.1876  -5.0564
    -4.6767  -4.6438   0.0878   0.4466   0.5386   0.9222   1.1334   1.2275
     1.5670   1.6211   1.7155   2.2614   2.3201   2.6381   2.6917   2.8519
     2.8697   3.0796   3.2725   3.3341   3.4352   3.5849   3.6964   3.7721
     3.8840   4.9179   5.1703   6.2063   6.4306   6.5431   6.6539   6.8982
     6.9457   7.3383

          k = 1.2703 0.0645-0.2971 ( 36480 PWs)   bands (ev):

   -44.1723 -44.1723 -22.3149 -22.3149 -22.2739 -22.2739 -22.0859 -22.0859
    -6.7450  -6.7450  -6.3033  -6.3033  -5.5813  -5.5813  -5.1172  -5.1172
    -4.6544  -4.6544   0.2960   0.2960   0.7576   0.7576   1.0061   1.0061
     1.5705   1.5705   2.0598   2.0598   2.4930   2.4930   2.8754   2.8754
     2.9624   2.9624   3.2791   3.2791   3.5696   3.5696   3.7079   3.7079
     4.2056   4.2056   5.8633   5.8633   6.3169   6.3169   6.8355   6.8355
     7.1571   7.1571

          k =-0.5081-0.3869 0.0000 ( 36463 PWs)   bands (ev):

   -44.1732 -44.1732 -22.3198 -22.3198 -22.2493 -22.2493 -22.0891 -22.0890
    -7.1552  -6.8840  -6.6325  -6.5003  -6.3425  -5.1705  -5.1498  -4.8131
    -4.7386  -4.4046   0.4615   0.7499   0.8377   1.3772   1.3843   1.5656
     1.6087   1.7438   1.9201   2.2441   2.2675   2.3401   2.6643   3.1575
     3.2340   3.2858   3.2935   3.4187   3.7060   3.7336   3.9689   4.0495
     4.7882   5.2615   5.3402   5.6969   5.9474   6.6117   6.7093   6.7538
     7.1550   7.5013

          k =-0.5081-0.3869 0.1485 ( 36477 PWs)   bands (ev):

   -44.1732 -44.1732 -22.3198 -22.3198 -22.2493 -22.2493 -22.0891 -22.0890
    -7.1233  -6.9299  -6.6373  -6.5964  -6.1380  -5.4706  -4.9779  -4.7787
    -4.7036  -4.4322   0.4968   0.7854   0.9505   1.0907   1.3927   1.4323
     1.5488   1.6611   2.0578   2.0908   2.3689   2.7157   2.9661   3.1337
     3.2451   3.2814   3.3252   3.4534   3.6110   3.7369   3.8145   4.0940
     4.3604   4.6330   5.8591   5.9847   6.2244   6.5494   6.7424   6.7651
     7.0318   7.4868

          k =-0.5081-0.3869-0.2971 ( 36492 PWs)   bands (ev):

   -44.1732 -44.1732 -22.3198 -22.3198 -22.2493 -22.2493 -22.0891 -22.0891
    -7.0356  -7.0356  -6.6380  -6.6380  -5.8159  -5.8159  -4.8707  -4.8707
    -4.5323  -4.5323   0.6443   0.6443   1.0979   1.0979   1.2776   1.2776
     1.4995   1.4995   2.0645   2.0645   2.8751   2.8751   3.2023   3.2023
     3.2245   3.2245   3.3179   3.3179   3.6693   3.6693   3.8889   3.8889
     4.1618   4.1618   6.0780   6.0780   6.6152   6.6152   6.7469   6.7469
     7.0920   7.0920

          k =-0.2541-0.3224 0.0000 ( 36485 PWs)   bands (ev):

   -44.1742 -44.1741 -22.3246 -22.3246 -22.2247 -22.2247 -22.0923 -22.0922
    -7.4776  -7.0984  -6.7625  -6.6932  -6.6180  -5.1977  -5.1673  -4.9219
    -4.8353  -3.9990   0.6469   0.9709   0.9907   1.2023   1.3063   1.5645
     2.0066   2.1756   2.3136   2.3699   2.5071   3.1163   3.2221   3.2812
     3.4922   3.7089   3.7576   3.8844   4.0136   4.0403   4.0773   4.2233
     4.3837   4.6928   5.7221   6.0447   6.3903   6.4779   6.6825   6.8728
     6.9809   7.0187

          k =-0.2541-0.3224 0.1485 ( 36445 PWs)   bands (ev):

   -44.1741 -44.1741 -22.3246 -22.3246 -22.2247 -22.2247 -22.0923 -22.0922
    -7.4410  -7.1877  -6.7755  -6.7576  -6.3850  -5.6011  -4.9926  -4.8612
    -4.6837  -4.0864   0.6461   0.9319   1.0964   1.1180   1.1937   1.6946
     1.8988   2.2339   2.3925   2.5182   2.6757   2.9383   3.2029   3.2664
     3.3130   3.4923   3.8181   3.8709   3.9474   4.0205   4.0752   4.1427
     4.6912   5.0740   5.7606   5.7990   6.1757   6.2810   6.6976   6.7233
     7.1836   7.2385

          k =-0.2541-0.3224-0.2971 ( 36442 PWs)   bands (ev):

   -44.1741 -44.1741 -22.3246 -22.3246 -22.2247 -22.2247 -22.0923 -22.0923
    -7.3359  -7.3359  -6.7763  -6.7763  -6.0189  -6.0189  -4.9232  -4.9232
    -4.3321  -4.3321   0.7429   0.7429   1.1129   1.1129   1.3858   1.3858
     2.2124   2.2124   2.5074   2.5074   2.8428   2.8428   3.1534   3.1534
     3.2726   3.2726   3.8014   3.8014   3.9698   3.9698   4.1196   4.1196
     5.2350   5.2350   5.6707   5.6707   5.9787   5.9787   6.6992   6.6992
     7.3685   7.3686

          k = 0.0000-0.2579 0.0000 ( 36445 PWs)   bands (ev):

   -44.1745 -44.1745 -22.3265 -22.3265 -22.2145 -22.2145 -22.0936 -22.0935
    -7.5997  -7.1997  -6.7998  -6.7357  -6.7161  -5.2182  -5.1914  -4.9623
    -4.8766  -3.8648   0.5796   0.7863   0.8480   1.0514   1.5319   1.6887
     2.3985   2.5454   2.5696   3.0334   3.0563   3.1461   3.1490   3.2325
     3.2968   3.4466   3.8036   4.0121   4.0159   4.0637   4.1369   4.6246
     5.3539   5.4208   5.5205   5.5938   5.9315   6.2037   6.6007   6.6460
     6.9332   7.3696

          k = 0.0000-0.2579 0.1485 ( 36452 PWs)   bands (ev):

   -44.1745 -44.1745 -22.3265 -22.3265 -22.2145 -22.2145 -22.0936 -22.0935
    -7.5622  -7.2988  -6.8158  -6.7963  -6.4716  -5.6584  -5.0100  -4.8987
    -4.6843  -3.9756   0.5867   0.8162   0.9802   1.1009   1.1155   2.1357
     2.1940   2.4183   2.5223   3.0280   3.0670   3.0805   3.1372   3.1933
     3.6091   3.6685   3.7106   3.9391   3.9692   4.1167   4.1673   4.6524
     5.0244   5.0359   5.6773   5.9250   6.1082   6.1263   6.5118   6.7799
     6.8882   7.2542

          k = 0.0000-0.2579-0.2971 ( 36454 PWs)   bands (ev):

   -44.1745 -44.1745 -22.3265 -22.3265 -22.2145 -22.2145 -22.0936 -22.0936
    -7.4541  -7.4541  -6.8130  -6.8130  -6.0961  -6.0961  -4.9517  -4.9517
    -4.2746  -4.2746   0.7510   0.7510   0.9072   0.9072   1.5647   1.5647
     2.4686   2.4686   2.7337   2.7337   3.0670   3.0670   3.1065   3.1065
     3.7728   3.7728   3.8268   3.8268   4.0880   4.0880   4.4468   4.4468
     4.7660   4.7660   5.8793   5.8793   6.3411   6.3411   6.4000   6.4000
     7.2208   7.2208

          k = 1.5243 0.0000 0.0000 ( 36439 PWs)   bands (ev):

   -44.1732 -44.1732 -22.3198 -22.3198 -22.2493 -22.2493 -22.0891 -22.0890
    -7.1466  -6.8813  -6.6395  -6.5083  -6.3408  -5.1748  -5.1487  -4.8135
    -4.7370  -4.4050   0.4662   0.7431   0.8317   1.3867   1.4869   1.5345
     1.6044   1.7621   1.9037   2.2592   2.2687   2.3483   2.6722   3.0992
     3.2343   3.2564   3.2957   3.4796   3.6350   3.6941   3.9648   4.0617
     4.7838   5.2582   5.3061   5.6876   5.9712   6.5757   6.7739   6.7879
     7.1106   7.4999

          k = 1.5243 0.0000 0.1485 ( 36476 PWs)   bands (ev):

   -44.1732 -44.1732 -22.3198 -22.3198 -22.2493 -22.2493 -22.0891 -22.0890
    -7.1147  -6.9240  -6.6448  -6.6071  -6.1366  -5.4695  -4.9838  -4.7791
    -4.7014  -4.4316   0.5011   0.7833   0.9454   1.0887   1.4310   1.5018
     1.5179   1.6583   2.0633   2.1026   2.3658   2.7314   2.9747   3.0765
     3.2398   3.2865   3.2942   3.5287   3.5582   3.6969   3.8053   4.0990
     4.3226   4.6295   5.8367   5.9876   6.2240   6.5230   6.7904   6.8201
     6.9850   7.4994

          k = 1.5243 0.0000-0.2971 ( 36508 PWs)   bands (ev):

   -44.1732 -44.1732 -22.3198 -22.3198 -22.2493 -22.2493 -22.0891 -22.0891
    -7.0273  -7.0273  -6.6483  -6.6483  -5.8142  -5.8142  -4.8748  -4.8748
    -4.5301  -4.5301   0.6486   0.6486   1.0947   1.0947   1.2765   1.2765
     1.5389   1.5389   2.0645   2.0645   2.8814   2.8814   3.1406   3.1406
     3.2645   3.2645   3.3356   3.3356   3.6370   3.6370   3.8880   3.8880
     4.1315   4.1315   6.0623   6.0623   6.6111   6.6111   6.7678   6.7678
     7.0963   7.0963

          k =-0.2541-0.4514 0.0000 ( 36444 PWs)   bands (ev):

   -44.1741 -44.1741 -22.3246 -22.3246 -22.2247 -22.2247 -22.0923 -22.0922
    -7.4633  -7.0838  -6.7749  -6.7200  -6.6150  -5.2059  -5.1650  -4.9232
    -4.8322  -4.0000   0.6535   1.0021   1.0762   1.2536   1.3976   1.5625
     2.0447   2.1630   2.2697   2.3387   2.4193   3.1022   3.1654   3.2305
     3.4855   3.7026   3.7406   3.8672   3.9523   4.0428   4.0497   4.1975
     4.4288   4.6149   5.7816   6.0499   6.3995   6.4257   6.7282   6.9043
     6.9196   7.0124

          k =-0.2541-0.4514 0.1485 ( 36461 PWs)   bands (ev):

   -44.1741 -44.1741 -22.3246 -22.3246 -22.2247 -22.2247 -22.0923 -22.0922
    -7.4265  -7.1720  -6.7917  -6.7800  -6.3841  -5.5988  -5.0060  -4.8610
    -4.6781  -4.0861   0.6489   0.9537   1.1309   1.2356   1.2805   1.7139
     1.9102   2.2096   2.2891   2.4560   2.6993   2.9353   3.1504   3.1661
     3.3476   3.4788   3.8189   3.8468   3.9467   3.9879   4.0500   4.0892
     4.6964   5.0399   5.7733   5.7946   6.1808   6.2264   6.7516   6.7707
     7.1464   7.2352

          k =-0.2541-0.4514-0.2971 ( 36490 PWs)   bands (ev):

   -44.1742 -44.1742 -22.3246 -22.3246 -22.2247 -22.2247 -22.0923 -22.0923
    -7.3209  -7.3209  -6.7963  -6.7963  -6.0163  -6.0163  -4.9302  -4.9302
    -4.3290  -4.3290   0.7424   0.7424   1.2414   1.2414   1.4029   1.4029
     2.1878   2.1878   2.4289   2.4289   2.8569   2.8569   3.1380   3.1380
     3.2269   3.2269   3.7871   3.7871   3.9828   3.9828   4.0632   4.0632
     5.2217   5.2217   5.6540   5.6540   5.9499   5.9499   6.7631   6.7631
     7.3469   7.3469

          k = 0.0000-0.3869 0.0000 ( 36477 PWs)   bands (ev):

   -44.1745 -44.1745 -22.3265 -22.3265 -22.2145 -22.2145 -22.0936 -22.0935
    -7.5820  -7.1788  -6.8194  -6.7698  -6.7124  -5.2286  -5.1886  -4.9656
    -4.8715  -3.8664   0.6028   0.8641   0.9499   1.1210   1.5971   1.7097
     2.4096   2.5188   2.5640   2.8539   3.0348   3.0388   3.0940   3.2826
     3.2904   3.4208   3.8408   3.8814   4.0013   4.0037   4.0116   4.6308
     5.3399   5.3776   5.5374   5.6706   5.9593   6.2321   6.4957   6.7195
     6.9358   7.2212

          k = 0.0000-0.3869 0.1485 ( 36452 PWs)   bands (ev):

   -44.1745 -44.1745 -22.3265 -22.3265 -22.2145 -22.2145 -22.0936 -22.0935
    -7.5443  -7.2785  -6.8408  -6.8206  -6.4719  -5.6554  -5.0285  -4.8978
    -4.6769  -3.9754   0.5964   0.9408   1.0890   1.1086   1.1951   2.1659
     2.2088   2.4302   2.5396   2.8030   2.8375   3.0499   3.1791   3.2399
     3.5925   3.6425   3.7084   3.9138   3.9658   4.0033   4.0662   4.6586
     5.0223   5.0248   5.7073   5.9291   6.0809   6.1302   6.4817   6.7825
     6.9551   7.2095

          k = 0.0000-0.3869-0.2971 ( 36454 PWs)   bands (ev):

   -44.1745 -44.1745 -22.3265 -22.3265 -22.2145 -22.2145 -22.0936 -22.0936
    -7.4354  -7.4354  -6.8386  -6.8386  -6.0931  -6.0931  -4.9607  -4.9607
    -4.2707  -4.2707   0.7465   0.7465   1.0679   1.0679   1.5936   1.5936
     2.4830   2.4830   2.6503   2.6503   2.9542   2.9542   3.0902   3.0902
     3.7724   3.7724   3.8167   3.8167   3.9911   3.9911   4.4355   4.4355
     4.7708   4.7708   5.8382   5.8382   6.3568   6.3568   6.4029   6.4029
     7.1944   7.1945

          k =-2.0325 0.0000 0.0000 ( 36452 PWs)   bands (ev):

   -44.1745 -44.1745 -22.3265 -22.3265 -22.2145 -22.2145 -22.0936 -22.0935
    -7.5742  -7.1697  -6.8240  -6.7883  -6.7108  -5.2331  -5.1874  -4.9661
    -4.8701  -3.8671   0.6050   0.8709   1.0513   1.1392   1.6391   1.7178
     2.4143   2.4793   2.5721   2.7088   2.9644   3.0312   3.1270   3.2877
     3.3688   3.4099   3.7750   3.8762   3.9421   3.9826   4.0114   4.6334
     5.3342   5.3655   5.5444   5.7074   5.9714   6.2401   6.4463   6.7447
     6.9368   7.2040

          k =-2.0325 0.0000 0.1485 ( 36456 PWs)   bands (ev):

   -44.1745 -44.1745 -22.3265 -22.3265 -22.2145 -22.2145 -22.0936 -22.0935
    -7.5364  -7.2696  -6.8504  -6.8325  -6.4719  -5.6542  -5.0357  -4.8978
    -4.6739  -3.9753   0.5949   0.9891   1.1069   1.1483   1.2580   2.1778
     2.2093   2.4353   2.5471   2.6634   2.7503   3.0425   3.1729   3.3064
     3.5858   3.6194   3.7146   3.8814   3.9644   3.9660   4.0352   4.6612
     5.0193   5.0250   5.7233   5.9310   6.0588   6.1349   6.4694   6.7836
     6.9775   7.1924

          k =-2.0325 0.0000-0.2971 ( 36460 PWs)   bands (ev):

   -44.1745 -44.1745 -22.3265 -22.3265 -22.2145 -22.2145 -22.0936 -22.0936
    -7.4272  -7.4272  -6.8496  -6.8496  -6.0919  -6.0919  -4.9644  -4.9644
    -4.2691  -4.2691   0.7421   0.7421   1.1522   1.1522   1.6078   1.6078
     2.4892   2.4892   2.5567   2.5567   2.9500   2.9500   3.0832   3.0832
     3.7617   3.7617   3.8126   3.8126   3.9659   3.9659   4.4314   4.4314
     4.7728   4.7728   5.8203   5.8203   6.3609   6.3609   6.4041   6.4041
     7.1806   7.1806

     the Fermi energy is     5.2541 ev

!    total energy              =   -4240.92242914 Ry

     total all-electron energy =   -150287.616124 Ry
     estimated scf accuracy    <          4.0E-11 Ry
     smearing contrib. (-TS)   =      -0.00008218 Ry
     internal energy E=F+TS    =   -4240.92234695 Ry

     The total energy is F=E-TS. E is the sum of the following terms:
     one-electron contribution =    -163.90113323 Ry
     hartree contribution      =     115.39895478 Ry
     xc contribution           =    -201.39164352 Ry
     ewald contribution        =    -223.52083558 Ry
     one-center paw contrib.   =   -3767.50768940 Ry

     convergence has been achieved in  20 iterations

     Forces acting on atoms (cartesian axes, Ry/au):

     atom    1 type  1   force =     0.00000000   -0.03047584    0.00000000
     atom    2 type  1   force =     0.00000000    0.03047584    0.00000000
     atom    3 type  2   force =     0.00000000    0.00216164    0.00000000
     atom    4 type  2   force =     0.00000000   -0.00216164    0.00000000
     atom    5 type  2   force =     0.00000000    0.00673172   -0.00138747
     atom    6 type  2   force =     0.00000000   -0.00673172    0.00138747
     atom    7 type  2   force =     0.00000000    0.00673172    0.00138747
     atom    8 type  2   force =     0.00000000   -0.00673172   -0.00138747
     atom    9 type  2   force =     0.00000000    0.01960727    0.01057805
     atom   10 type  2   force =     0.00000000   -0.01960727   -0.01057805
     atom   11 type  2   force =     0.00000000    0.01960727   -0.01057805
     atom   12 type  2   force =     0.00000000   -0.01960727    0.01057805

     Total force =     0.063571     Total SCF correction =     0.000009


     Computing stress (Cartesian axis) and pressure

          total   stress  (Ry/bohr**3)                   (kbar)     P=       -5.16
  -0.00002150  -0.00000000   0.00000000           -3.16       -0.00        0.00
   0.00000000  -0.00003295   0.00000000            0.00       -4.85        0.00
   0.00000000   0.00000000  -0.00005079            0.00        0.00       -7.47

 
     init_run     :     18.89s CPU     19.40s WALL (       1 calls)
     electrons    :   1048.51s CPU   1060.46s WALL (       1 calls)
     forces       :      6.65s CPU      6.86s WALL (       1 calls)
     stress       :     37.78s CPU     38.27s WALL (       1 calls)

     Called by init_run:
     wfcinit      :     14.25s CPU     14.44s WALL (       1 calls)
     potinit      :      1.44s CPU      1.49s WALL (       1 calls)
     hinit0       :      1.91s CPU      1.95s WALL (       1 calls)

     Called by electrons:
     c_bands      :    871.90s CPU    875.67s WALL (      21 calls)
     sum_band     :    148.02s CPU    152.27s WALL (      21 calls)
     v_of_rho     :      6.16s CPU      6.49s WALL (      21 calls)
     newd         :     15.73s CPU     19.48s WALL (      21 calls)
     PAW_pot      :      6.62s CPU      6.63s WALL (      21 calls)
     mix_rho      :      0.96s CPU      0.99s WALL (      21 calls)

     Called by c_bands:
     init_us_2    :     12.68s CPU     12.74s WALL (    2835 calls)
     cegterg      :    786.03s CPU    789.12s WALL (    1323 calls)

     Called by *egterg:
     cdiaghg      :     29.21s CPU     29.27s WALL (    8847 calls)
     h_psi        :    605.45s CPU    608.39s WALL (    8973 calls)
     s_psi        :     48.80s CPU     48.87s WALL (    8973 calls)
     g_psi        :      2.14s CPU      2.15s WALL (    7587 calls)

     Called by h_psi:
     h_psi:calbec :     42.27s CPU     42.35s WALL (    8973 calls)
     vloc_psi     :    510.94s CPU    513.65s WALL (    8973 calls)
     add_vuspsi   :     48.81s CPU     48.88s WALL (    8973 calls)

     General routines
     calbec       :     55.74s CPU     55.85s WALL (   10611 calls)
     fft          :      3.68s CPU      3.82s WALL (     297 calls)
     ffts         :      0.10s CPU      0.11s WALL (      42 calls)
     fftw         :    473.68s CPU    476.06s WALL (  472628 calls)
     interpolate  :      0.33s CPU      0.33s WALL (      21 calls)
 
     Parallel routines
 
     PWSCF        :  18m32.09s CPU  18m45.31s WALL

 
   This run was terminated on:  15:49: 4  19Nov2021            

=------------------------------------------------------------------------------=
   JOB DONE.
=------------------------------------------------------------------------------=
