
     Program PWSCF v.6.8 starts on 19Nov2021 at 15:24:25 

     This program is part of the open-source Quantum ESPRESSO suite
     for quantum simulation of materials; please cite
         "P. Giannozzi et al., J. Phys.:Condens. Matter 21 395502 (2009);
         "P. Giannozzi et al., J. Phys.:Condens. Matter 29 465901 (2017);
         "P. Giannozzi et al., J. Chem. Phys. 152 154105 (2020);
          URL http://www.quantum-espresso.org", 
     in publications or presentations arising from this work. More details at
     http://www.quantum-espresso.org/quote

     Parallel version (MPI), running on    10 processors

     MPI processes distributed on     1 nodes
     R & G space division:  proc/nbgrp/npool/nimage =      10
     82462 MiB available memory on the printing compute node when the environment starts
 
     Waiting for input...
     Reading input from standard input

     Current dimensions of program PWSCF are:
     Max number of different atomic species (ntypx) = 10
     Max number of k-points (npk) =  40000
     Max angular momentum in pseudopotentials (lmaxx) =  4
     file Zr.pbe-spn-kjpaw_psl.1.0.0.UPF: wavefunction(s)  4S 4P renormalized
     file Te.pbe-n-kjpaw_psl.1.0.0.UPF: wavefunction(s)  5S 5P renormalized
     Message from routine setup:
     using ibrav=0 with symmetry is DISCOURAGED, use correct ibrav instead

     Subspace diagonalization in iterative solution of the eigenvalue problem:
     a serial algorithm will be used

 
     Parallelization info
     --------------------
     sticks:   dense  smooth     PW     G-vecs:    dense   smooth      PW
     Min         734     293     87               115340    29174    4753
     Max         735     295     88               115345    29176    4760
     Sum        7345    2937    873              1153415   291749   47557
 
     Using Slab Decomposition
 


     bravais-lattice index     =            0
     lattice parameter (alat)  =      15.5510  a.u.
     unit-cell volume          =    3018.5011 (a.u.)^3
     number of atoms/cell      =           12
     number of atomic types    =            2
     number of electrons       =        84.00
     number of Kohn-Sham states=           50
     kinetic-energy cutoff     =      80.0000  Ry
     charge density cutoff     =     800.0000  Ry
     scf convergence threshold =      1.0E-10
     mixing beta               =       0.7000
     number of iterations used =            8  plain     mixing
     Exchange-correlation= SLA  PW   PBX  PBC
                           (   1   4   3   4   0   0   0)

     celldm(1)=  15.551040  celldm(2)=   0.000000  celldm(3)=   0.000000
     celldm(4)=   0.000000  celldm(5)=   0.000000  celldm(6)=   0.000000

     crystal axes: (cart. coord. in units of alat)
               a(1) = (   0.246007  -0.969268   0.000000 )  
               a(2) = (   0.246007   0.969268   0.000000 )  
               a(3) = (   0.000000   0.000000   1.683031 )  

     reciprocal axes: (cart. coord. in units 2 pi/alat)
               b(1) = (  2.032465 -0.515853  0.000000 )  
               b(2) = (  2.032465  0.515853  0.000000 )  
               b(3) = (  0.000000  0.000000  0.594166 )  


     PseudoPot. # 1 for Zr read from file:
     pseudo/Zr.pbe-spn-kjpaw_psl.1.0.0.UPF
     MD5 check sum: 02112c41713a0468aff2bb39ef194e36
     Pseudo is Projector augmented-wave + core cor, Zval = 12.0
     Generated using &quot;atomic&quot; code by A. Dal Corso  v.6.2.2
     Shape of augmentation charge: PSQ
     Using radial grid of 1225 points,  6 beta functions with: 
                l(1) =   0
                l(2) =   0
                l(3) =   1
                l(4) =   1
                l(5) =   2
                l(6) =   2
     Q(r) pseudized with 0 coefficients 


     PseudoPot. # 2 for Te read from file:
     pseudo/Te.pbe-n-kjpaw_psl.1.0.0.UPF
     MD5 check sum: 66247bff2bd9dbf220fbb0bf5ab56e9d
     Pseudo is Projector augmented-wave + core cor, Zval =  6.0
     Generated using &quot;atomic&quot; code by A. Dal Corso  v.6.3
     Shape of augmentation charge: PSQ
     Using radial grid of 1245 points,  6 beta functions with: 
                l(1) =   0
                l(2) =   0
                l(3) =   1
                l(4) =   1
                l(5) =   2
                l(6) =   2
     Q(r) pseudized with 0 coefficients 


     atomic species   valence    mass     pseudopotential
        Zr            12.00    91.22000     Zr( 1.00)
        Te             6.00   127.60000     Te( 1.00)

      8 Sym. Ops., with inversion, found ( 4 have fractional translation)



   Cartesian axes

     site n.     atom                  positions (alat units)
         1           Zr  tau(   1) = (   0.0000000   0.6126465   0.4207578  )
         2           Zr  tau(   2) = (   0.2460067   0.3566216   1.2622733  )
         3           Te  tau(   3) = (   0.2460067   0.3343898   0.4207578  )
         4           Te  tau(   4) = (   0.0000000   0.6348783   1.2622733  )
         5           Te  tau(   5) = (   0.2460067   0.8066216   0.2498762  )
         6           Te  tau(   6) = (   0.0000000   0.1626465   1.4331549  )
         7           Te  tau(   7) = (   0.2460067   0.8066216   0.5916393  )
         8           Te  tau(   8) = (   0.0000000   0.1626465   1.0913917  )
         9           Te  tau(   9) = (   0.0000000   0.4025605   0.7191174  )
        10           Te  tau(  10) = (   0.2460067   0.5667076   0.9639136  )
        11           Te  tau(  11) = (   0.0000000   0.4025605   0.1223981  )
        12           Te  tau(  12) = (   0.2460067   0.5667076   1.5606330  )

     number of k points=    63  Methfessel-Paxton smearing, width (Ry)=  0.0030
                       cart. coord. in units 2pi/alat
        k(    1) = (   0.0000000   0.0000000   0.0000000), wk =   0.0078125
        k(    2) = (   0.0000000   0.0000000   0.1485415), wk =   0.0156250
        k(    3) = (   0.0000000   0.0000000  -0.2970830), wk =   0.0078125
        k(    4) = (   0.2540581   0.0644816   0.0000000), wk =   0.0312500
        k(    5) = (   0.2540581   0.0644816   0.1485415), wk =   0.0625000
        k(    6) = (   0.2540581   0.0644816  -0.2970830), wk =   0.0312500
        k(    7) = (   0.5081162   0.1289633   0.0000000), wk =   0.0312500
        k(    8) = (   0.5081162   0.1289633   0.1485415), wk =   0.0625000
        k(    9) = (   0.5081162   0.1289633  -0.2970830), wk =   0.0312500
        k(   10) = (   0.7621743   0.1934449   0.0000000), wk =   0.0312500
        k(   11) = (   0.7621743   0.1934449   0.1485415), wk =   0.0625000
        k(   12) = (   0.7621743   0.1934449  -0.2970830), wk =   0.0312500
        k(   13) = (  -1.0162324  -0.2579266   0.0000000), wk =   0.0156250
        k(   14) = (  -1.0162324  -0.2579266   0.1485415), wk =   0.0312500
        k(   15) = (  -1.0162324  -0.2579266  -0.2970830), wk =   0.0156250
        k(   16) = (   0.5081162   0.0000000   0.0000000), wk =   0.0156250
        k(   17) = (   0.5081162   0.0000000   0.1485415), wk =   0.0312500
        k(   18) = (   0.5081162   0.0000000  -0.2970830), wk =   0.0156250
        k(   19) = (   0.7621743   0.0644816   0.0000000), wk =   0.0312500
        k(   20) = (   0.7621743   0.0644816   0.1485415), wk =   0.0625000
        k(   21) = (   0.7621743   0.0644816  -0.2970830), wk =   0.0312500
        k(   22) = (   1.0162324   0.1289633   0.0000000), wk =   0.0312500
        k(   23) = (   1.0162324   0.1289633   0.1485415), wk =   0.0625000
        k(   24) = (   1.0162324   0.1289633  -0.2970830), wk =   0.0312500
        k(   25) = (  -0.7621743  -0.3224082   0.0000000), wk =   0.0312500
        k(   26) = (  -0.7621743  -0.3224082   0.1485415), wk =   0.0625000
        k(   27) = (  -0.7621743  -0.3224082  -0.2970830), wk =   0.0312500
        k(   28) = (  -0.5081162  -0.2579266   0.0000000), wk =   0.0312500
        k(   29) = (  -0.5081162  -0.2579266   0.1485415), wk =   0.0625000
        k(   30) = (  -0.5081162  -0.2579266  -0.2970830), wk =   0.0312500
        k(   31) = (  -0.2540581  -0.1934449   0.0000000), wk =   0.0312500
        k(   32) = (  -0.2540581  -0.1934449   0.1485415), wk =   0.0625000
        k(   33) = (  -0.2540581  -0.1934449  -0.2970830), wk =   0.0312500
        k(   34) = (   0.0000000  -0.1289633   0.0000000), wk =   0.0156250
        k(   35) = (   0.0000000  -0.1289633   0.1485415), wk =   0.0312500
        k(   36) = (   0.0000000  -0.1289633  -0.2970830), wk =   0.0156250
        k(   37) = (   1.0162324   0.0000000   0.0000000), wk =   0.0156250
        k(   38) = (   1.0162324   0.0000000   0.1485415), wk =   0.0312500
        k(   39) = (   1.0162324   0.0000000  -0.2970830), wk =   0.0156250
        k(   40) = (   1.2702905   0.0644816   0.0000000), wk =   0.0312500
        k(   41) = (   1.2702905   0.0644816   0.1485415), wk =   0.0625000
        k(   42) = (   1.2702905   0.0644816  -0.2970830), wk =   0.0312500
        k(   43) = (  -0.5081162  -0.3868899   0.0000000), wk =   0.0312500
        k(   44) = (  -0.5081162  -0.3868899   0.1485415), wk =   0.0625000
        k(   45) = (  -0.5081162  -0.3868899  -0.2970830), wk =   0.0312500
        k(   46) = (  -0.2540581  -0.3224082   0.0000000), wk =   0.0312500
        k(   47) = (  -0.2540581  -0.3224082   0.1485415), wk =   0.0625000
        k(   48) = (  -0.2540581  -0.3224082  -0.2970830), wk =   0.0312500
        k(   49) = (   0.0000000  -0.2579266   0.0000000), wk =   0.0156250
        k(   50) = (   0.0000000  -0.2579266   0.1485415), wk =   0.0312500
        k(   51) = (   0.0000000  -0.2579266  -0.2970830), wk =   0.0156250
        k(   52) = (   1.5243485   0.0000000   0.0000000), wk =   0.0156250
        k(   53) = (   1.5243485   0.0000000   0.1485415), wk =   0.0312500
        k(   54) = (   1.5243485   0.0000000  -0.2970830), wk =   0.0156250
        k(   55) = (  -0.2540581  -0.4513715   0.0000000), wk =   0.0312500
        k(   56) = (  -0.2540581  -0.4513715   0.1485415), wk =   0.0625000
        k(   57) = (  -0.2540581  -0.4513715  -0.2970830), wk =   0.0312500
        k(   58) = (   0.0000000  -0.3868899   0.0000000), wk =   0.0156250
        k(   59) = (   0.0000000  -0.3868899   0.1485415), wk =   0.0312500
        k(   60) = (   0.0000000  -0.3868899  -0.2970830), wk =   0.0156250
        k(   61) = (  -2.0324647   0.0000000   0.0000000), wk =   0.0078125
        k(   62) = (  -2.0324647   0.0000000   0.1485415), wk =   0.0156250
        k(   63) = (  -2.0324647   0.0000000  -0.2970830), wk =   0.0078125

     Dense  grid:  1153415 G-vectors     FFT dimensions: ( 144, 144, 240)

     Smooth grid:   291749 G-vectors     FFT dimensions: (  90,  90, 150)

     Estimated max dynamical RAM per process >     657.19 MB

     Estimated total dynamical RAM >       6.42 GB

     Initial potential from superposition of free atoms

     starting charge   83.99353, renormalised to   84.00000
     Starting wfcs are   66 randomized atomic wfcs
     Checking if some PAW data can be deallocated... 

     total cpu time spent up to now is       21.7 secs

     Self-consistent Calculation

     iteration #  1     ecut=    80.00 Ry     beta= 0.70
     Davidson diagonalization with overlap
     ethr =  1.00E-02,  avg # of iterations =  2.0

     Threshold (ethr) on eigenvalues was too large:
     Diagonalizing with lowered threshold

     Davidson diagonalization with overlap
     ethr =  3.71E-04,  avg # of iterations =  4.1

     total cpu time spent up to now is      107.0 secs

     total energy              =   -4240.71190965 Ry
     estimated scf accuracy    <       0.42408800 Ry

     iteration #  2     ecut=    80.00 Ry     beta= 0.70
     Davidson diagonalization with overlap
     ethr =  5.05E-04,  avg # of iterations =  7.4

     total cpu time spent up to now is      167.4 secs

     total energy              =   -4240.62037977 Ry
     estimated scf accuracy    <       2.16613678 Ry

     iteration #  3     ecut=    80.00 Ry     beta= 0.70
     Davidson diagonalization with overlap
     ethr =  5.05E-04,  avg # of iterations =  5.1

     total cpu time spent up to now is      218.6 secs

     total energy              =   -4240.90733760 Ry
     estimated scf accuracy    <       0.02319979 Ry

     iteration #  4     ecut=    80.00 Ry     beta= 0.70
     Davidson diagonalization with overlap
     c_bands:  2 eigenvalues not converged
     c_bands:  1 eigenvalues not converged
     c_bands:  1 eigenvalues not converged
     c_bands:  1 eigenvalues not converged
     c_bands:  1 eigenvalues not converged
     c_bands:  1 eigenvalues not converged
     ethr =  2.76E-05,  avg # of iterations = 15.8

     total cpu time spent up to now is      306.9 secs

     total energy              =   -4240.92776314 Ry
     estimated scf accuracy    <       0.10756258 Ry

     iteration #  5     ecut=    80.00 Ry     beta= 0.70
     Davidson diagonalization with overlap
     ethr =  2.76E-05,  avg # of iterations =  4.9

     total cpu time spent up to now is      352.4 secs

     total energy              =   -4240.92954138 Ry
     estimated scf accuracy    <       0.02557660 Ry

     iteration #  6     ecut=    80.00 Ry     beta= 0.70
     Davidson diagonalization with overlap
     ethr =  2.76E-05,  avg # of iterations =  2.6

     total cpu time spent up to now is      391.9 secs

     total energy              =   -4240.93098629 Ry
     estimated scf accuracy    <       0.00320679 Ry

     iteration #  7     ecut=    80.00 Ry     beta= 0.70
     Davidson diagonalization with overlap
     c_bands:  1 eigenvalues not converged
     c_bands:  1 eigenvalues not converged
     c_bands:  2 eigenvalues not converged
     c_bands:  2 eigenvalues not converged
     c_bands:  1 eigenvalues not converged
     c_bands:  1 eigenvalues not converged
     c_bands:  1 eigenvalues not converged
     c_bands:  1 eigenvalues not converged
     c_bands:  1 eigenvalues not converged
     c_bands:  1 eigenvalues not converged
     ethr =  3.82E-06,  avg # of iterations = 14.2

     total cpu time spent up to now is      463.9 secs

     total energy              =   -4240.93283347 Ry
     estimated scf accuracy    <       0.00284260 Ry

     iteration #  8     ecut=    80.00 Ry     beta= 0.70
     Davidson diagonalization with overlap
     c_bands:  1 eigenvalues not converged
     c_bands:  1 eigenvalues not converged
     ethr =  3.38E-06,  avg # of iterations =  2.6

     total cpu time spent up to now is      501.1 secs

     total energy              =   -4240.93282796 Ry
     estimated scf accuracy    <       0.00066305 Ry

     iteration #  9     ecut=    80.00 Ry     beta= 0.70
     Davidson diagonalization with overlap
     c_bands:  1 eigenvalues not converged
     ethr =  7.89E-07,  avg # of iterations =  5.7

     total cpu time spent up to now is      545.7 secs

     total energy              =   -4240.93294784 Ry
     estimated scf accuracy    <       0.00001850 Ry

     iteration # 10     ecut=    80.00 Ry     beta= 0.70
     Davidson diagonalization with overlap
     c_bands:  1 eigenvalues not converged
     ethr =  2.20E-08,  avg # of iterations =  9.9

     total cpu time spent up to now is      612.2 secs

     total energy              =   -4240.93297749 Ry
     estimated scf accuracy    <       0.00001691 Ry

     iteration # 11     ecut=    80.00 Ry     beta= 0.70
     Davidson diagonalization with overlap
     ethr =  2.01E-08,  avg # of iterations =  2.6

     total cpu time spent up to now is      650.9 secs

     total energy              =   -4240.93297956 Ry
     estimated scf accuracy    <       0.00000036 Ry

     iteration # 12     ecut=    80.00 Ry     beta= 0.70
     Davidson diagonalization with overlap
     c_bands:  1 eigenvalues not converged
     ethr =  4.28E-10,  avg # of iterations = 10.6

     total cpu time spent up to now is      723.8 secs

     total energy              =   -4240.93298000 Ry
     estimated scf accuracy    <       0.00000135 Ry

     iteration # 13     ecut=    80.00 Ry     beta= 0.70
     Davidson diagonalization with overlap
     c_bands:  1 eigenvalues not converged
     ethr =  4.28E-10,  avg # of iterations =  4.2

     total cpu time spent up to now is      768.3 secs

     total energy              =   -4240.93298008 Ry
     estimated scf accuracy    <       0.00000011 Ry

     iteration # 14     ecut=    80.00 Ry     beta= 0.70
     Davidson diagonalization with overlap
     c_bands:  1 eigenvalues not converged
     ethr =  1.36E-10,  avg # of iterations =  6.2

     total cpu time spent up to now is      820.2 secs

     total energy              =   -4240.93298012 Ry
     estimated scf accuracy    <       0.00000004 Ry

     iteration # 15     ecut=    80.00 Ry     beta= 0.70
     Davidson diagonalization with overlap
     c_bands:  1 eigenvalues not converged
     ethr =  4.62E-11,  avg # of iterations =  1.7

     total cpu time spent up to now is      855.6 secs

     total energy              =   -4240.93298012 Ry
     estimated scf accuracy    <          7.8E-09 Ry

     iteration # 16     ecut=    80.00 Ry     beta= 0.70
     Davidson diagonalization with overlap
     ethr =  9.27E-12,  avg # of iterations =  6.1

     total cpu time spent up to now is      908.4 secs

     total energy              =   -4240.93298013 Ry
     estimated scf accuracy    <          4.8E-09 Ry

     iteration # 17     ecut=    80.00 Ry     beta= 0.70
     Davidson diagonalization with overlap
     ethr =  5.72E-12,  avg # of iterations =  1.2

     total cpu time spent up to now is      942.9 secs

     total energy              =   -4240.93298013 Ry
     estimated scf accuracy    <          1.5E-09 Ry

     iteration # 18     ecut=    80.00 Ry     beta= 0.70
     Davidson diagonalization with overlap
     ethr =  1.78E-12,  avg # of iterations =  3.0

     total cpu time spent up to now is      981.8 secs

     total energy              =   -4240.93298013 Ry
     estimated scf accuracy    <          3.2E-10 Ry

     iteration # 19     ecut=    80.00 Ry     beta= 0.70
     Davidson diagonalization with overlap
     ethr =  3.76E-13,  avg # of iterations =  6.4

     total cpu time spent up to now is     1035.0 secs

     total energy              =   -4240.93298013 Ry
     estimated scf accuracy    <          1.4E-10 Ry

     iteration # 20     ecut=    80.00 Ry     beta= 0.70
     Davidson diagonalization with overlap
     ethr =  1.65E-13,  avg # of iterations =  1.6

     total cpu time spent up to now is     1069.7 secs

     total energy              =   -4240.93298013 Ry
     estimated scf accuracy    <          1.2E-10 Ry

     iteration # 21     ecut=    80.00 Ry     beta= 0.70
     Davidson diagonalization with overlap
     ethr =  1.43E-13,  avg # of iterations =  1.4

     total cpu time spent up to now is     1105.0 secs

     End of self-consistent calculation

          k = 0.0000 0.0000 0.0000 ( 36359 PWs)   bands (ev):

   -44.1582 -44.1582 -22.3035 -22.3035 -22.1978 -22.1978 -22.0789 -22.0788
    -7.6360  -7.1839  -6.8857  -6.7662  -6.6120  -5.2832  -5.1517  -4.9193
    -4.8622  -3.8672   0.4672   0.6624   0.7888   1.0445   1.4797   1.6185
     2.4123   2.5268   2.5874   2.9937   3.0593   3.0660   3.1760   3.4975
     3.5347   3.5623   3.8542   4.0379   4.0754   4.2766   4.3153   4.6204
     5.2211   5.5472   5.5568   5.5702   5.8617   6.0682   6.4361   6.7752
     6.9309   7.3086

          k = 0.0000 0.0000 0.1485 ( 36415 PWs)   bands (ev):

   -44.1582 -44.1582 -22.3035 -22.3035 -22.1978 -22.1978 -22.0788 -22.0788
    -7.5972  -7.3128  -6.8261  -6.7723  -6.4697  -5.6887  -4.9435  -4.8748
    -4.7084  -3.9831   0.5028   0.7005   0.9080   1.0606   1.0615   2.0551
     2.1277   2.4347   2.5582   3.0644   3.0665   3.1333   3.3009   3.3596
     3.6727   3.6760   3.8226   4.0266   4.0309   4.2962   4.3265   4.6409
     4.9630   5.0662   5.6931   5.9103   6.0592   6.0883   6.5768   6.7198
     6.7697   7.2910

          k = 0.0000 0.0000-0.2971 ( 36410 PWs)   bands (ev):

   -44.1582 -44.1582 -22.3035 -22.3035 -22.1978 -22.1978 -22.0788 -22.0788
    -7.4840  -7.4840  -6.7898  -6.7898  -6.1211  -6.1211  -4.9057  -4.9057
    -4.2921  -4.2921   0.6755   0.6755   0.8398   0.8398   1.4735   1.4735
     2.4930   2.4930   2.7049   2.7049   3.0853   3.0853   3.3313   3.3313
     3.8150   3.8150   3.8831   3.8831   4.3122   4.3122   4.4277   4.4277
     4.7330   4.7330   5.9599   5.9599   6.2566   6.2566   6.3808   6.3808
     7.1831   7.1831

          k = 0.2541 0.0645 0.0000 ( 36396 PWs)   bands (ev):

   -44.1578 -44.1578 -22.3016 -22.3016 -22.2078 -22.2078 -22.0776 -22.0775
    -7.5225  -7.0963  -6.7858  -6.7208  -6.5550  -5.2528  -5.1344  -4.8791
    -4.8211  -4.0029   0.5548   0.7993   0.9271   1.1621   1.2553   1.5170
     1.9459   2.1674   2.2100   2.5170   2.5987   2.9771   3.5211   3.6297
     3.6532   3.6888   3.7243   3.8211   4.0493   4.1131   4.1988   4.2728
     4.4578   4.7432   5.6584   6.0047   6.3101   6.5388   6.6123   6.8299
     7.0015   7.1442

          k = 0.2541 0.0645 0.1485 ( 36423 PWs)   bands (ev):

   -44.1578 -44.1578 -22.3016 -22.3016 -22.2078 -22.2078 -22.0776 -22.0775
    -7.4847  -7.2119  -6.7602  -6.7259  -6.3951  -5.6333  -4.9211  -4.8359
    -4.7092  -4.0958   0.5782   0.8401   0.9759   1.0040   1.1359   1.6262
     1.8786   2.2938   2.5146   2.5458   2.5892   2.9099   3.2425   3.3025
     3.6300   3.6853   3.8010   3.8761   3.9900   4.0789   4.2147   4.2754
     4.7037   5.0803   5.7845   5.8112   6.2260   6.2797   6.4890   6.6615
     7.2720   7.2751

          k = 0.2541 0.0645-0.2971 ( 36436 PWs)   bands (ev):

   -44.1578 -44.1578 -22.3016 -22.3016 -22.2078 -22.2078 -22.0775 -22.0775
    -7.3750  -7.3750  -6.7397  -6.7397  -6.0482  -6.0482  -4.8723  -4.8723
    -4.3524  -4.3524   0.7086   0.7086   0.9446   0.9446   1.3176   1.3176
     2.2717   2.2717   2.6240   2.6240   2.7293   2.7293   3.0777   3.0777
     3.5777   3.5777   3.8409   3.8409   4.0084   4.0084   4.2698   4.2698
     5.2200   5.2200   5.7341   5.7341   6.0615   6.0615   6.4818   6.4818
     7.4321   7.4321

          k = 0.5081 0.1290 0.0000 ( 36499 PWs)   bands (ev):

   -44.1569 -44.1569 -22.2969 -22.2969 -22.2321 -22.2321 -22.0745 -22.0744
    -7.2061  -6.8891  -6.5915  -6.4999  -6.3653  -5.2082  -5.1331  -4.7729
    -4.7198  -4.4136   0.4898   0.7439   0.7849   1.1680   1.3258   1.4919
     1.6541   1.8178   1.9636   2.1737   2.1813   2.2614   2.5107   3.1948
     3.3258   3.3991   3.4429   3.5541   3.7664   3.8369   3.9872   4.1518
     4.6935   5.3379   5.3760   5.8199   5.8996   6.5285   6.5422   6.8192
     7.3602   7.5702

          k = 0.5081 0.1290 0.1485 ( 36476 PWs)   bands (ev):

   -44.1569 -44.1569 -22.2969 -22.2969 -22.2321 -22.2321 -22.0745 -22.0744
    -7.1729  -6.9553  -6.5946  -6.5700  -6.1691  -5.5023  -4.9338  -4.7487
    -4.7036  -4.4465   0.5046   0.7574   0.9190   1.0930   1.2074   1.4283
     1.4687   1.6869   2.0423   2.0637   2.3308   2.5711   2.8654   3.2302
     3.3141   3.3943   3.4646   3.5679   3.6223   3.7976   3.8489   4.2120
     4.4262   4.6110   5.9905   6.0569   6.2142   6.5396   6.5828   6.7030
     7.2084   7.4759

          k = 0.5081 0.1290-0.2971 ( 36466 PWs)   bands (ev):

   -44.1569 -44.1569 -22.2969 -22.2969 -22.2321 -22.2321 -22.0744 -22.0744
    -7.0793  -7.0793  -6.5953  -6.5953  -5.8501  -5.8501  -4.8202  -4.8202
    -4.5519  -4.5519   0.6220   0.6220   1.1037   1.1037   1.2679   1.2679
     1.3586   1.3586   2.0609   2.0609   2.7943   2.7943   3.0932   3.0932
     3.3128   3.3128   3.5409   3.5409   3.7106   3.7106   3.8524   3.8524
     4.3016   4.3016   6.2180   6.2180   6.5296   6.5296   6.7606   6.7606
     7.0826   7.0826

          k = 0.7622 0.1934 0.0000 ( 36521 PWs)   bands (ev):

   -44.1560 -44.1560 -22.2920 -22.2920 -22.2564 -22.2564 -22.0714 -22.0713
    -6.8253  -6.7122  -6.3265  -6.0763  -6.0075  -5.2810  -5.2707  -5.0483
    -4.6518  -4.6168   0.0012   0.3096   0.6660   1.1684   1.1705   1.2262
     1.4781   1.5875   1.9017   1.9411   2.2622   2.4464   2.5332   2.7259
     2.7495   3.2496   3.2776   3.3316   3.6450   3.6541   3.7793   3.8701
     4.0130   4.5695   5.7418   6.1405   6.2213   6.6414   6.6991   6.7904
     7.1816   7.5434

          k = 0.7622 0.1934 0.1485 ( 36503 PWs)   bands (ev):

   -44.1560 -44.1560 -22.2920 -22.2920 -22.2564 -22.2564 -22.0714 -22.0713
    -6.8081  -6.7273  -6.3194  -6.2001  -5.8326  -5.4139  -5.1900  -5.0697
    -4.6406  -4.6170   0.0803   0.4113   0.5525   0.9636   1.1745   1.2083
     1.4936   1.6485   1.7224   2.0914   2.1292   2.6488   2.6623   2.7965
     2.8588   3.1672   3.2737   3.3645   3.4556   3.6511   3.6917   3.8775
     4.0151   4.7962   5.3273   6.2166   6.5211   6.5561   6.7038   6.8857
     6.9566   7.4352

          k = 0.7622 0.1934-0.2971 ( 36522 PWs)   bands (ev):

   -44.1560 -44.1560 -22.2920 -22.2920 -22.2564 -22.2564 -22.0714 -22.0714
    -6.7668  -6.7668  -6.2860  -6.2860  -5.6112  -5.6112  -5.1228  -5.1228
    -4.6236  -4.6236   0.2872   0.2872   0.7201   0.7201   1.0658   1.0658
     1.5757   1.5757   1.9658   1.9658   2.3770   2.3770   2.7962   2.7962
     2.9898   2.9898   3.4190   3.4190   3.5613   3.5613   3.7754   3.7754
     4.2184   4.2184   5.9492   5.9492   6.3512   6.3512   6.7927   6.7927
     7.2772   7.2772

          k =-1.0162-0.2579 0.0000 ( 36506 PWs)   bands (ev):

   -44.1556 -44.1556 -22.2898 -22.2898 -22.2666 -22.2666 -22.0701 -22.0701
    -6.6780  -6.6578  -5.7629  -5.7533  -5.6233  -5.6092  -5.5783  -5.5772
    -4.5936  -4.5769   0.0982   0.1255   0.4490   0.4668   1.0137   1.0211
     1.4712   1.6776   2.2187   2.3291   2.3292   2.3330   2.7986   2.8359
     2.8409   2.9624   3.2543   3.2761   3.2951   3.5076   3.5711   3.6591
     3.8678   3.8983   6.3282   6.3607   6.4269   6.5128   6.9087   6.9690
     6.9772   6.9866

          k =-1.0162-0.2579 0.1485 ( 36506 PWs)   bands (ev):

   -44.1556 -44.1556 -22.2898 -22.2898 -22.2666 -22.2666 -22.0701 -22.0701
    -6.6745  -6.6602  -5.7595  -5.7506  -5.6706  -5.6672  -5.5259  -5.5206
    -4.5977  -4.5860   0.0137   0.0230   0.6602   0.6638   1.0390   1.0669
     1.4633   1.5696   1.9190   1.9774   2.3579   2.3673   2.7612   2.7726
     2.9562   2.9567   3.1949   3.2357   3.5272   3.5521   3.7067   3.7331
     4.1249   4.1361   5.8295   5.8356   6.3619   6.4329   6.8461   6.8866
     7.2039   7.2235

          k =-1.0162-0.2579-0.2971 ( 36528 PWs)   bands (ev):

   -44.1556 -44.1556 -22.2898 -22.2898 -22.2666 -22.2666 -22.0701 -22.0701
    -6.6667  -6.6667  -5.7499  -5.7499  -5.6992  -5.6992  -5.4930  -5.4930
    -4.5986  -4.5986  -0.0397  -0.0397   0.8901   0.8901   1.0899   1.0899
     1.4819   1.4819   1.6166   1.6166   2.3608   2.3608   2.7939   2.7939
     2.9259   2.9259   3.2261   3.2261   3.5744   3.5744   3.7664   3.7664
     4.6636   4.6636   5.2072   5.2072   6.3311   6.3311   6.8816   6.8816
     7.2664   7.2664

          k = 0.5081 0.0000 0.0000 ( 36503 PWs)   bands (ev):

   -44.1569 -44.1569 -22.2969 -22.2969 -22.2321 -22.2321 -22.0745 -22.0744
    -7.2125  -6.8921  -6.5837  -6.5012  -6.3602  -5.2092  -5.1294  -4.7692
    -4.7246  -4.4132   0.4880   0.7415   0.7919   1.1343   1.3211   1.4716
     1.6600   1.8224   1.9745   2.1369   2.1736   2.2472   2.5197   3.1758
     3.3307   3.3917   3.4974   3.5823   3.7739   3.8229   4.0234   4.1895
     4.6958   5.3439   5.3797   5.8529   5.8796   6.4891   6.4906   6.8544
     7.3900   7.5694

          k = 0.5081 0.0000 0.1485 ( 36453 PWs)   bands (ev):

   -44.1569 -44.1569 -22.2969 -22.2969 -22.2321 -22.2321 -22.0745 -22.0744
    -7.1792  -6.9600  -6.5861  -6.5652  -6.1688  -5.5033  -4.9272  -4.7503
    -4.7047  -4.4473   0.5023   0.7522   0.9254   1.0949   1.1773   1.4204
     1.4543   1.6846   2.0376   2.0648   2.3288   2.5453   2.8573   3.2163
     3.3080   3.4236   3.4870   3.5931   3.6159   3.8400   3.8480   4.2466
     4.4418   4.6137   5.9934   6.0741   6.2166   6.4883   6.5479   6.7332
     7.2347   7.4791

          k = 0.5081 0.0000-0.2971 ( 36452 PWs)   bands (ev):

   -44.1569 -44.1569 -22.2969 -22.2969 -22.2321 -22.2321 -22.0744 -22.0744
    -7.0853  -7.0853  -6.5876  -6.5876  -5.8512  -5.8512  -4.8159  -4.8159
    -4.5546  -4.5546   0.6173   0.6173   1.1044   1.1044   1.2910   1.2910
     1.3120   1.3120   2.0602   2.0602   2.7850   2.7850   3.0683   3.0683
     3.3061   3.3061   3.6020   3.6020   3.7148   3.7148   3.8559   3.8559
     4.3270   4.3270   6.2333   6.2333   6.4959   6.4959   6.7743   6.7743
     7.0846   7.0846

          k = 0.7622 0.0645 0.0000 ( 36505 PWs)   bands (ev):

   -44.1560 -44.1560 -22.2920 -22.2920 -22.2564 -22.2564 -22.0714 -22.0713
    -6.8348  -6.7107  -6.3169  -6.0792  -6.0065  -5.2817  -5.2654  -5.0481
    -4.6462  -4.6237  -0.0053   0.3214   0.6922   1.1575   1.2066   1.2398
     1.4335   1.5425   1.8787   1.9516   2.2095   2.4278   2.5180   2.7032
     2.7252   3.3040   3.3175   3.3339   3.5971   3.6650   3.8351   3.8960
     4.0314   4.6139   5.7405   6.1559   6.1829   6.6072   6.7463   6.7563
     7.2067   7.6715

          k = 0.7622 0.0645 0.1485 ( 36509 PWs)   bands (ev):

   -44.1560 -44.1560 -22.2920 -22.2920 -22.2564 -22.2564 -22.0714 -22.0713
    -6.8167  -6.7281  -6.3101  -6.1976  -5.8347  -5.4145  -5.1859  -5.0687
    -4.6368  -4.6219   0.0769   0.4190   0.5619   0.9883   1.1812   1.2123
     1.4540   1.6507   1.7397   2.0251   2.0518   2.6542   2.6573   2.7641
     2.8500   3.1670   3.3431   3.3870   3.4155   3.6698   3.7235   3.8949
     4.0642   4.7955   5.3547   6.2021   6.5229   6.5399   6.7217   6.8841
     6.9393   7.4536

          k = 0.7622 0.0645-0.2971 ( 36472 PWs)   bands (ev):

   -44.1560 -44.1560 -22.2920 -22.2920 -22.2564 -22.2564 -22.0714 -22.0714
    -6.7722  -6.7722  -6.2790  -6.2790  -5.6133  -5.6133  -5.1200  -5.1200
    -4.6240  -4.6240   0.2897   0.2897   0.7168   0.7168   1.0922   1.0922
     1.5711   1.5711   1.9128   1.9128   2.3414   2.3414   2.7869   2.7869
     2.9881   2.9881   3.4878   3.4878   3.5582   3.5582   3.7691   3.7691
     4.2433   4.2433   5.9728   5.9728   6.3527   6.3527   6.7578   6.7578
     7.3031   7.3031

          k = 1.0162 0.1290 0.0000 ( 36514 PWs)   bands (ev):

   -44.1556 -44.1556 -22.2898 -22.2898 -22.2666 -22.2666 -22.0701 -22.0701
    -6.6780  -6.6578  -5.7623  -5.7540  -5.6233  -5.6092  -5.5793  -5.5762
    -4.5936  -4.5769   0.0924   0.1314   0.4428   0.4732   1.0087   1.0280
     1.4762   1.6690   2.2233   2.3109   2.3245   2.3384   2.8016   2.8341
     2.8712   2.9564   3.2235   3.2972   3.3054   3.5129   3.5483   3.6682
     3.8533   3.9091   6.3268   6.3635   6.4221   6.5179   6.9173   6.9721
     6.9736   6.9888

          k = 1.0162 0.1290 0.1485 ( 36524 PWs)   bands (ev):

   -44.1556 -44.1556 -22.2898 -22.2898 -22.2666 -22.2666 -22.0701 -22.0701
    -6.6745  -6.6601  -5.7589  -5.7512  -5.6710  -5.6667  -5.5262  -5.5203
    -4.5977  -4.5860   0.0117   0.0246   0.6582   0.6665   1.0434   1.0638
     1.4673   1.5678   1.9200   1.9708   2.3499   2.3633   2.7184   2.8254
     2.9644   2.9790   3.1681   3.2385   3.5218   3.5834   3.6981   3.7068
     4.1231   4.1438   5.8177   5.8494   6.3593   6.4353   6.8530   6.8857
     7.2068   7.2207

          k = 1.0162 0.1290-0.2971 ( 36516 PWs)   bands (ev):

   -44.1556 -44.1556 -22.2898 -22.2898 -22.2666 -22.2666 -22.0701 -22.0701
    -6.6667  -6.6667  -5.7499  -5.7499  -5.6992  -5.6992  -5.4930  -5.4930
    -4.5986  -4.5986  -0.0398  -0.0398   0.8894   0.8894   1.0927   1.0927
     1.4806   1.4806   1.6177   1.6177   2.3503   2.3503   2.7764   2.7764
     2.9747   2.9747   3.2041   3.2041   3.5815   3.5815   3.7576   3.7576
     4.6639   4.6639   5.2090   5.2090   6.3308   6.3308   6.8841   6.8841
     7.2662   7.2662

          k =-0.7622-0.3224 0.0000 ( 36511 PWs)   bands (ev):

   -44.1560 -44.1560 -22.2920 -22.2920 -22.2564 -22.2564 -22.0714 -22.0713
    -6.8100  -6.7159  -6.3402  -6.0721  -6.0091  -5.2802  -5.2784  -5.0487
    -4.6567  -4.6101   0.0104   0.2933   0.6314   1.1448   1.1834   1.2064
     1.5005   1.6584   1.9280   1.9471   2.3481   2.4625   2.5567   2.7502
     2.7845   3.1597   3.2450   3.3611   3.6003   3.6542   3.7610   3.8365
     3.9812   4.4985   5.7440   6.1365   6.2648   6.6182   6.6935   6.8579
     7.1409   7.5470

          k =-0.7622-0.3224 0.1485 ( 36492 PWs)   bands (ev):

   -44.1560 -44.1560 -22.2920 -22.2920 -22.2564 -22.2564 -22.0714 -22.0713
    -6.7946  -6.7271  -6.3326  -6.2038  -5.8295  -5.4132  -5.1957  -5.0710
    -4.6438  -4.6122   0.0847   0.4020   0.5376   0.9367   1.1614   1.2100
     1.5508   1.6417   1.6988   2.1901   2.2401   2.6432   2.6725   2.8289
     2.8699   3.1756   3.1915   3.3470   3.4754   3.6226   3.6596   3.8478
     3.9336   4.7960   5.2904   6.2405   6.5025   6.5712   6.6940   6.9090
     6.9769   7.4036

          k =-0.7622-0.3224-0.2971 ( 36508 PWs)   bands (ev):

   -44.1560 -44.1560 -22.2920 -22.2920 -22.2564 -22.2564 -22.0714 -22.0714
    -6.7589  -6.7589  -6.2961  -6.2961  -5.6082  -5.6082  -5.1267  -5.1267
    -4.6229  -4.6229   0.2832   0.2832   0.7250   0.7250   1.0359   1.0359
     1.5797   1.5797   2.0292   2.0292   2.4428   2.4428   2.8138   2.8138
     2.9901   2.9901   3.3255   3.3255   3.5666   3.5666   3.7676   3.7676
     4.1842   4.1842   5.9179   5.9179   6.3475   6.3475   6.8523   6.8523
     7.2332   7.2332

          k =-0.5081-0.2579 0.0000 ( 36480 PWs)   bands (ev):

   -44.1569 -44.1569 -22.2969 -22.2969 -22.2321 -22.2321 -22.0745 -22.0744
    -7.1899  -6.8827  -6.6101  -6.4966  -6.3783  -5.2057  -5.1422  -4.7787
    -4.7114  -4.4146   0.4957   0.7432   0.7690   1.2648   1.3360   1.5440
     1.6451   1.8124   1.9398   2.2072   2.2393   2.2877   2.4931   3.2460
     3.3204   3.3246   3.4168   3.4569   3.7365   3.8453   3.9351   4.0757
     4.6852   5.3261   5.3606   5.7435   5.9507   6.6266   6.6623   6.7348
     7.2851   7.5531

          k =-0.5081-0.2579 0.1485 ( 36485 PWs)   bands (ev):

   -44.1569 -44.1569 -22.2969 -22.2969 -22.2321 -22.2321 -22.0745 -22.0744
    -7.1568  -6.9435  -6.6144  -6.5834  -6.1696  -5.5000  -4.9486  -4.7463
    -4.7001  -4.4446   0.5111   0.7654   0.9045   1.0890   1.2914   1.4328
     1.5241   1.6878   2.0542   2.0645   2.3343   2.6292   2.8838   3.2649
     3.2935   3.3283   3.4458   3.4745   3.6244   3.7585   3.8274   4.1381
     4.3806   4.6045   5.9632   6.0359   6.2099   6.6277   6.6580   6.6781
     7.1423   7.4710

          k =-0.5081-0.2579-0.2971 ( 36478 PWs)   bands (ev):

   -44.1569 -44.1569 -22.2969 -22.2969 -22.2321 -22.2321 -22.0744 -22.0744
    -7.0640  -7.0640  -6.6147  -6.6147  -5.8474  -5.8474  -4.8303  -4.8303
    -4.5457  -4.5457   0.6326   0.6326   1.1010   1.1010   1.2491   1.2491
     1.4427   1.4427   2.0615   2.0615   2.8186   2.8186   3.1582   3.1582
     3.3279   3.3279   3.3915   3.3915   3.6993   3.6993   3.8422   3.8422
     4.2380   4.2380   6.1795   6.1795   6.6007   6.6007   6.7368   6.7368
     7.0819   7.0819

          k =-0.2541-0.1934 0.0000 ( 36410 PWs)   bands (ev):

   -44.1578 -44.1578 -22.3016 -22.3016 -22.2079 -22.2078 -22.0776 -22.0775
    -7.5109  -7.0851  -6.7835  -6.7364  -6.5722  -5.2511  -5.1417  -4.8862
    -4.8123  -4.0039   0.5871   0.8743   0.9368   1.1858   1.2868   1.5180
     1.9669   2.1860   2.2157   2.4805   2.5762   3.0470   3.4087   3.5220
     3.5815   3.6849   3.7817   3.8119   3.9850   4.1104   4.1730   4.2381
     4.3986   4.7112   5.7063   6.0186   6.3480   6.5757   6.6016   6.8507
     6.9987   7.0694

          k =-0.2541-0.1934 0.1485 ( 36427 PWs)   bands (ev):

   -44.1578 -44.1578 -22.3016 -22.3016 -22.2078 -22.2078 -22.0776 -22.0775
    -7.4731  -7.2000  -6.7716  -6.7405  -6.4003  -5.6316  -4.9389  -4.8316
    -4.7025  -4.0955   0.6044   0.8999   1.0076   1.0404   1.1531   1.6435
     1.8794   2.2964   2.4978   2.5349   2.5969   2.9136   3.2416   3.3275
     3.4967   3.6347   3.7420   3.8803   3.9691   4.0634   4.1636   4.2230
     4.6846   5.0599   5.7801   5.8134   6.1930   6.3222   6.5718   6.6798
     7.2262   7.2695

          k =-0.2541-0.1934-0.2971 ( 36422 PWs)   bands (ev):

   -44.1578 -44.1578 -22.3016 -22.3016 -22.2078 -22.2078 -22.0775 -22.0775
    -7.3632  -7.3632  -6.7550  -6.7550  -6.0475  -6.0475  -4.8788  -4.8788
    -4.3492  -4.3492   0.7274   0.7274   1.0106   1.0106   1.3273   1.3273
     2.2704   2.2704   2.5874   2.5874   2.7464   2.7464   3.1097   3.1097
     3.4891   3.4891   3.7992   3.7992   4.0020   4.0020   4.2127   4.2127
     5.2115   5.2115   5.6962   5.6962   6.0495   6.0495   6.5714   6.5714
     7.4081   7.4084

          k = 0.0000-0.1290 0.0000 ( 36417 PWs)   bands (ev):

   -44.1582 -44.1582 -22.3035 -22.3035 -22.1978 -22.1978 -22.0789 -22.0788
    -7.6299  -7.1771  -6.8845  -6.7750  -6.6222  -5.2824  -5.1555  -4.9247
    -4.8563  -3.8679   0.4938   0.7049   0.7947   1.0479   1.5035   1.6287
     2.4162   2.5265   2.5944   3.0018   3.0539   3.1043   3.1738   3.4394
     3.4641   3.5517   3.7954   4.0177   4.0753   4.2240   4.2659   4.6220
     5.2139   5.5087   5.5732   5.5773   5.8744   6.1097   6.4886   6.7441
     6.9317   7.2901

          k = 0.0000-0.1290 0.1485 ( 36419 PWs)   bands (ev):

   -44.1582 -44.1582 -22.3035 -22.3035 -22.1978 -22.1978 -22.0788 -22.0788
    -7.5911  -7.3062  -6.8311  -6.7805  -6.4738  -5.6879  -4.9541  -4.8717
    -4.7048  -3.9831   0.5256   0.7430   0.9241   1.0542   1.0841   2.0639
     2.1425   2.4389   2.5647   3.0592   3.0904   3.1296   3.2559   3.3221
     3.6677   3.6710   3.7572   3.9794   4.0294   4.2501   4.2807   4.6425
     4.9613   5.0520   5.7001   5.9128   6.0699   6.0997   6.5654   6.7625
     6.7707   7.4400

          k = 0.0000-0.1290-0.2971 ( 36464 PWs)   bands (ev):

   -44.1582 -44.1582 -22.3035 -22.3035 -22.1978 -22.1978 -22.0788 -22.0788
    -7.4778  -7.4778  -6.7979  -6.7979  -6.1212  -6.1212  -4.9092  -4.9092
    -4.2906  -4.2906   0.7062   0.7062   0.8540   0.8540   1.4833   1.4833
     2.4982   2.4982   2.7154   2.7154   3.0805   3.0805   3.2900   3.2900
     3.7900   3.7900   3.8782   3.8782   4.2294   4.2294   4.4397   4.4397
     4.7339   4.7339   5.9440   5.9440   6.2801   6.2801   6.3821   6.3821
     7.1891   7.1891

          k = 1.0162 0.0000 0.0000 ( 36499 PWs)   bands (ev):

   -44.1556 -44.1556 -22.2898 -22.2898 -22.2666 -22.2666 -22.0701 -22.0701
    -6.6780  -6.6578  -5.7615  -5.7548  -5.6233  -5.6092  -5.5798  -5.5757
    -4.5936  -4.5769   0.0880   0.1359   0.4385   0.4776   1.0063   1.0323
     1.4817   1.6596   2.2294   2.2925   2.3223   2.3414   2.8070   2.8248
     2.9162   2.9401   3.2092   3.2995   3.3180   3.5137   3.5288   3.6814
     3.8361   3.9190   6.3257   6.3660   6.4178   6.5228   6.9277   6.9682
     6.9751   6.9910

          k = 1.0162 0.0000 0.1485 ( 36485 PWs)   bands (ev):

   -44.1556 -44.1556 -22.2898 -22.2898 -22.2666 -22.2666 -22.0701 -22.0701
    -6.6745  -6.6601  -5.7582  -5.7519  -5.6714  -5.6663  -5.5265  -5.5201
    -4.5977  -4.5860   0.0101   0.0258   0.6570   0.6682   1.0509   1.0574
     1.4717   1.5656   1.9214   1.9639   2.3436   2.3583   2.7033   2.8436
     2.9702   3.0258   3.1271   3.2397   3.5216   3.6363   3.6532   3.6902
     4.1222   4.1505   5.8124   5.8568   6.3569   6.4376   6.8610   6.8836
     7.2127   7.2149

          k = 1.0162 0.0000-0.2971 ( 36514 PWs)   bands (ev):

   -44.1556 -44.1556 -22.2898 -22.2898 -22.2666 -22.2666 -22.0701 -22.0701
    -6.6667  -6.6667  -5.7499  -5.7499  -5.6993  -5.6993  -5.4930  -5.4930
    -4.5986  -4.5986  -0.0400  -0.0400   0.8887   0.8887   1.0954   1.0954
     1.4792   1.4792   1.6189   1.6189   2.3402   2.3402   2.7647   2.7647
     3.0268   3.0268   3.1726   3.1726   3.5891   3.5891   3.7482   3.7482
     4.6641   4.6641   5.2108   5.2108   6.3306   6.3306   6.8867   6.8867
     7.2660   7.2660

          k = 1.2703 0.0645 0.0000 ( 36468 PWs)   bands (ev):

   -44.1560 -44.1560 -22.2920 -22.2920 -22.2564 -22.2564 -22.0714 -22.0713
    -6.7973  -6.7202  -6.3500  -6.0691  -6.0104  -5.2838  -5.2796  -5.0490
    -4.6591  -4.6064   0.0171   0.2821   0.6082   1.1381   1.1900   1.1937
     1.5036   1.7091   1.9200   1.9871   2.4101   2.4772   2.5747   2.7647
     2.8060   3.0773   3.2495   3.4344   3.5456   3.5513   3.8137   3.8170
     3.9557   4.4395   5.7457   6.1393   6.2950   6.5611   6.7338   6.9129
     7.1047   7.5553

          k = 1.2703 0.0645 0.1485 ( 36490 PWs)   bands (ev):

   -44.1560 -44.1560 -22.2920 -22.2920 -22.2564 -22.2564 -22.0714 -22.0713
    -6.7836  -6.7283  -6.3421  -6.2065  -5.8273  -5.4127  -5.1997  -5.0720
    -4.6454  -4.6096   0.0874   0.3966   0.5260   0.9215   1.1522   1.2131
     1.6097   1.6374   1.6623   2.2669   2.3187   2.6472   2.6784   2.8473
     2.8759   3.0924   3.2361   3.3536   3.4279   3.5864   3.7074   3.8073
     3.8581   4.7950   5.2658   6.2616   6.4713   6.5815   6.6990   6.9378
     6.9900   7.3772

          k = 1.2703 0.0645-0.2971 ( 36480 PWs)   bands (ev):

   -44.1560 -44.1560 -22.2920 -22.2920 -22.2564 -22.2564 -22.0714 -22.0714
    -6.7531  -6.7531  -6.3035  -6.3035  -5.6061  -5.6061  -5.1295  -5.1295
    -4.6225  -4.6225   0.2802   0.2802   0.7283   0.7283   1.0186   1.0186
     1.5822   1.5822   2.0642   2.0642   2.5008   2.5008   2.8457   2.8457
     2.9792   2.9792   3.2487   3.2487   3.5780   3.5780   3.7503   3.7503
     4.1612   4.1612   5.8970   5.8970   6.3442   6.3442   6.9057   6.9057
     7.1926   7.1926

          k =-0.5081-0.3869 0.0000 ( 36463 PWs)   bands (ev):

   -44.1569 -44.1569 -22.2969 -22.2969 -22.2321 -22.2321 -22.0745 -22.0744
    -7.1721  -6.8777  -6.6278  -6.4933  -6.3924  -5.2033  -5.1514  -4.7820
    -4.7054  -4.4156   0.5040   0.7340   0.7541   1.3448   1.4040   1.5876
     1.6306   1.8305   1.9014   2.2465   2.2697   2.2993   2.4939   3.1947
     3.2985   3.3344   3.3423   3.4590   3.7012   3.7573   3.9145   4.0611
     4.6745   5.3168   5.3303   5.6758   6.0074   6.6498   6.7386   6.7769
     7.1968   7.5589

          k =-0.5081-0.3869 0.1485 ( 36477 PWs)   bands (ev):

   -44.1569 -44.1569 -22.2969 -22.2969 -22.2321 -22.2321 -22.0745 -22.0744
    -7.1391  -6.9315  -6.6329  -6.5999  -6.1700  -5.4976  -4.9624  -4.7457
    -4.6960  -4.4428   0.5187   0.7672   0.8907   1.0850   1.4056   1.4370
     1.5748   1.6847   2.0672   2.0748   2.3293   2.6786   2.9028   3.1679
     3.3035   3.3269   3.3652   3.4773   3.6275   3.7264   3.7809   4.1020
     4.3162   4.5986   5.9096   6.0418   6.2077   6.5619   6.7613   6.7932
     7.0626   7.4776

          k =-0.5081-0.3869-0.2971 ( 36492 PWs)   bands (ev):

   -44.1569 -44.1569 -22.2969 -22.2969 -22.2321 -22.2321 -22.0744 -22.0744
    -7.0472  -7.0472  -6.6355  -6.6355  -5.8447  -5.8447  -4.8401  -4.8401
    -4.5399  -4.5399   0.6424   0.6424   1.0969   1.0969   1.2376   1.2376
     1.5350   1.5350   2.0585   2.0585   2.8442   2.8442   3.2119   3.2119
     3.2609   3.2609   3.3477   3.3477   3.6702   3.6702   3.8336   3.8336
     4.1720   4.1720   6.1413   6.1413   6.6267   6.6267   6.7519   6.7519
     7.0903   7.0903

          k =-0.2541-0.3224 0.0000 ( 36485 PWs)   bands (ev):

   -44.1578 -44.1578 -22.3016 -22.3016 -22.2079 -22.2078 -22.0776 -22.0775
    -7.4935  -7.0690  -6.7802  -6.7569  -6.5993  -5.2487  -5.1524  -4.8915
    -4.8043  -4.0054   0.6145   0.9514   1.0031   1.2348   1.3592   1.5167
     2.0004   2.2171   2.2183   2.3963   2.5182   3.1673   3.2491   3.3365
     3.5272   3.6957   3.7827   3.8066   3.9668   4.0512   4.1225   4.1980
     4.3926   4.6431   5.7825   6.0315   6.3797   6.5216   6.6863   6.8817
     6.9530   7.0070

          k =-0.2541-0.3224 0.1485 ( 36445 PWs)   bands (ev):

   -44.1578 -44.1578 -22.3016 -22.3016 -22.2078 -22.2078 -22.0776 -22.0775
    -7.4555  -7.1820  -6.7899  -6.7613  -6.4072  -5.6293  -4.9602  -4.8287
    -4.6937  -4.0951   0.6241   0.9512   1.0750   1.1205   1.2225   1.6688
     1.8854   2.2902   2.4154   2.5176   2.6131   2.9105   3.2532   3.3165
     3.3340   3.5068   3.7745   3.8781   3.9320   4.0549   4.0861   4.1442
     4.6834   5.0230   5.7676   5.8318   6.1800   6.3022   6.6756   6.7229
     7.1694   7.2617

          k =-0.2541-0.3224-0.2971 ( 36442 PWs)   bands (ev):

   -44.1578 -44.1578 -22.3016 -22.3016 -22.2078 -22.2078 -22.0775 -22.0775
    -7.3454  -7.3454  -6.7778  -6.7778  -6.0465  -6.0465  -4.8880  -4.8880
    -4.3447  -4.3447   0.7374   0.7374   1.1439   1.1439   1.3420   1.3420
     2.2630   2.2630   2.5180   2.5180   2.7619   2.7619   3.1679   3.1679
     3.3146   3.3146   3.7941   3.7941   4.0001   4.0001   4.1304   4.1304
     5.2029   5.2029   5.6566   5.6566   6.0191   6.0191   6.6791   6.6791
     7.3743   7.3746

          k = 0.0000-0.2579 0.0000 ( 36445 PWs)   bands (ev):

   -44.1582 -44.1582 -22.3035 -22.3035 -22.1978 -22.1978 -22.0789 -22.0788
    -7.6145  -7.1600  -6.8815  -6.7952  -6.6489  -5.2806  -5.1651  -4.9324
    -4.8467  -3.8695   0.5430   0.8093   0.8222   1.0866   1.5574   1.6523
     2.4258   2.5217   2.6121   3.0369   3.0404   3.1686   3.2038   3.2238
     3.2496   3.5259   3.7533   3.9952   4.0752   4.0829   4.1425   4.6260
     5.1968   5.4379   5.5946   5.6404   5.9055   6.1690   6.5886   6.6578
     6.9337   7.2502

          k = 0.0000-0.2579 0.1485 ( 36452 PWs)   bands (ev):

   -44.1582 -44.1582 -22.3035 -22.3035 -22.1978 -22.1978 -22.0788 -22.0788
    -7.5756  -7.2897  -6.8451  -6.8001  -6.4835  -5.6861  -4.9758  -4.8675
    -4.6966  -3.9829   0.5623   0.8521   0.9878   1.0798   1.1126   2.0873
     2.1755   2.4493   2.5808   3.0461   3.0827   3.1204   3.1522   3.1788
     3.6449   3.6477   3.6844   3.9298   4.0256   4.1302   4.1709   4.6464
     4.9570   5.0305   5.7246   5.9191   6.0897   6.1081   6.5321   6.7729
     6.8424   7.2372

          k = 0.0000-0.2579-0.2971 ( 36454 PWs)   bands (ev):

   -44.1582 -44.1582 -22.3035 -22.3035 -22.1978 -22.1978 -22.0788 -22.0788
    -7.4619  -7.4619  -6.8182  -6.8182  -6.1213  -6.1213  -4.9174  -4.9174
    -4.2868  -4.2868   0.7409   0.7409   0.9422   0.9422   1.5081   1.5081
     2.5111   2.5111   2.7317   2.7317   3.0686   3.0686   3.1392   3.1392
     3.7693   3.7693   3.8662   3.8662   4.0920   4.0920   4.4334   4.4334
     4.7360   4.7360   5.9097   5.9097   6.3173   6.3173   6.3854   6.3854
     7.1813   7.1813

          k = 1.5243 0.0000 0.0000 ( 36439 PWs)   bands (ev):

   -44.1569 -44.1569 -22.2969 -22.2969 -22.2321 -22.2321 -22.0745 -22.0744
    -7.1641  -6.8762  -6.6346  -6.4919  -6.3986  -5.2023  -5.1553  -4.7828
    -4.7034  -4.4160   0.5084   0.7277   0.7482   1.3481   1.5269   1.5526
     1.6170   1.8501   1.8816   2.2656   2.2804   2.2860   2.5052   3.1405
     3.2769   3.3145   3.3553   3.5268   3.6549   3.6893   3.9094   4.0745
     4.6697   5.3112   5.3136   5.6519   6.0332   6.6137   6.8078   6.8100
     7.1508   7.5885

          k = 1.5243 0.0000 0.1485 ( 36476 PWs)   bands (ev):

   -44.1569 -44.1569 -22.2969 -22.2969 -22.2321 -22.2321 -22.0745 -22.0744
    -7.1312  -6.9266  -6.6399  -6.6079  -6.1701  -5.4967  -4.9679  -4.7458
    -4.6942  -4.4420   0.5222   0.7661   0.8852   1.0835   1.4296   1.5107
     1.5430   1.6946   2.0730   2.0850   2.3212   2.6927   2.9157   3.1137
     3.2660   3.3387   3.3521   3.5655   3.5701   3.6995   3.7563   4.1107
     4.2770   4.5964   5.8844   6.0477   6.2073   6.5340   6.8072   6.8536
     7.0145   7.4887

          k = 1.5243 0.0000-0.2971 ( 36508 PWs)   bands (ev):

   -44.1569 -44.1569 -22.2969 -22.2969 -22.2321 -22.2321 -22.0744 -22.0744
    -7.0398  -7.0398  -6.6447  -6.6447  -5.8435  -5.8435  -4.8440  -4.8440
    -4.5376  -4.5376   0.6463   0.6463   1.0948   1.0948   1.2336   1.2336
     1.5791   1.5791   2.0548   2.0548   2.8545   2.8545   3.1599   3.1599
     3.2912   3.2912   3.3542   3.3542   3.6465   3.6465   3.8315   3.8315
     4.1443   4.1443   6.1257   6.1257   6.6215   6.6215   6.7711   6.7711
     7.0980   7.0980

          k =-0.2541-0.4514 0.0000 ( 36444 PWs)   bands (ev):

   -44.1578 -44.1578 -22.3016 -22.3016 -22.2079 -22.2078 -22.0776 -22.0775
    -7.4803  -7.0577  -6.7778  -6.7694  -6.6211  -5.2470  -5.1603  -4.8932
    -4.8005  -4.0065   0.6223   0.9624   1.1128   1.2773   1.4492   1.5138
     2.0390   2.2065   2.2423   2.3000   2.4382   3.1374   3.2147   3.2772
     3.5251   3.7229   3.7418   3.7526   3.9711   3.9971   4.0940   4.1720
     4.4502   4.5578   5.8455   6.0379   6.3949   6.4773   6.7370   6.8867
     6.9071   6.9986

          k =-0.2541-0.4514 0.1485 ( 36461 PWs)   bands (ev):

   -44.1578 -44.1578 -22.3016 -22.3016 -22.2078 -22.2078 -22.0776 -22.0775
    -7.4423  -7.1685  -6.8039  -6.7769  -6.4118  -5.6276  -4.9738  -4.8279
    -4.6880  -4.0948   0.6282   0.9698   1.0882   1.2566   1.3050   1.6896
     1.8993   2.2634   2.3167   2.4759   2.6301   2.9000   3.2001   3.2138
     3.3595   3.5059   3.8000   3.8290   3.9170   4.0058   4.0633   4.1028
     4.6975   4.9900   5.7604   5.8490   6.1914   6.2486   6.7416   6.7541
     7.1358   7.2564

          k =-0.2541-0.4514-0.2971 ( 36490 PWs)   bands (ev):

   -44.1578 -44.1578 -22.3016 -22.3016 -22.2078 -22.2078 -22.0775 -22.0775
    -7.3319  -7.3319  -6.7949  -6.7949  -6.0456  -6.0456  -4.8945  -4.8945
    -4.3416  -4.3416   0.7382   0.7382   1.2665   1.2665   1.3601   1.3601
     2.2391   2.2391   2.4499   2.4499   2.7700   2.7700   3.1816   3.1816
     3.2355   3.2355   3.7853   3.7853   4.0038   4.0038   4.0751   4.0751
     5.1988   5.1988   5.6345   5.6345   5.9921   5.9921   6.7441   6.7441
     7.3514   7.3515

          k = 0.0000-0.3869 0.0000 ( 36477 PWs)   bands (ev):

   -44.1582 -44.1582 -22.3035 -22.3035 -22.1978 -22.1978 -22.0789 -22.0788
    -7.5982  -7.1424  -6.8785  -6.8129  -6.6795  -5.2787  -5.1753  -4.9359
    -4.8408  -3.8711   0.5668   0.8244   0.9830   1.1532   1.6224   1.6743
     2.4357   2.5024   2.6311   2.9314   3.0231   3.0260   3.0913   3.1635
     3.3406   3.4994   3.7834   3.9015   3.9793   4.0080   4.0748   4.6302
     5.1801   5.3981   5.6119   5.7179   5.9382   6.2025   6.5537   6.6611
     6.9355   7.2158

          k = 0.0000-0.3869 0.1485 ( 36452 PWs)   bands (ev):

   -44.1582 -44.1582 -22.3035 -22.3035 -22.1978 -22.1978 -22.0788 -22.0788
    -7.5592  -7.2719  -6.8616  -6.8197  -6.4927  -5.6842  -4.9945  -4.8657
    -4.6890  -3.9828   0.5742   0.9703   1.0517   1.1233   1.1982   2.1147
     2.2005   2.4602   2.5981   2.8690   2.9002   3.0322   3.1108   3.2735
     3.6230   3.6276   3.6846   3.9090   4.0049   4.0216   4.0615   4.6506
     4.9526   5.0201   5.7587   5.9261   6.0898   6.1082   6.4935   6.7752
     6.8966   7.1984

          k = 0.0000-0.3869-0.2971 ( 36454 PWs)   bands (ev):

   -44.1582 -44.1582 -22.3035 -22.3035 -22.1978 -22.1978 -22.0788 -22.0788
    -7.4450  -7.4450  -6.8397  -6.8397  -6.1211  -6.1211  -4.9257  -4.9257
    -4.2831  -4.2831   0.7415   0.7415   1.0951   1.0951   1.5353   1.5353
     2.5247   2.5247   2.6814   2.6814   2.9916   2.9916   3.0561   3.0561
     3.7775   3.7775   3.8541   3.8541   3.9872   3.9872   4.4209   4.4209
     4.7384   4.7384   5.8747   5.8747   6.3392   6.3392   6.3891   6.3891
     7.1556   7.1556

          k =-2.0325 0.0000 0.0000 ( 36452 PWs)   bands (ev):

   -44.1582 -44.1582 -22.3035 -22.3035 -22.1978 -22.1978 -22.0789 -22.0788
    -7.5911  -7.1350  -6.8772  -6.8190  -6.6939  -5.2779  -5.1797  -4.9365
    -4.8390  -3.8718   0.5702   0.8309   1.0897   1.1613   1.6638   1.6829
     2.4400   2.4849   2.6394   2.7862   2.9334   3.0196   3.1212   3.1614
     3.4318   3.4882   3.7916   3.8119   3.9466   3.9655   4.0746   4.6321
     5.1733   5.3868   5.6190   5.7548   5.9529   6.2122   6.5035   6.6853
     6.9361   7.2025

          k =-2.0325 0.0000 0.1485 ( 36456 PWs)   bands (ev):

   -44.1582 -44.1582 -22.3035 -22.3035 -22.1978 -22.1978 -22.0788 -22.0788
    -7.5520  -7.2642  -6.8691  -6.8280  -6.4963  -5.6834  -5.0018  -4.8653
    -4.6860  -3.9827   0.5740   1.0144   1.0627   1.1646   1.2638   2.1261
     2.2087   2.4648   2.6055   2.7373   2.8003   3.0261   3.1066   3.3372
     3.6025   3.6192   3.7023   3.8790   3.9595   4.0199   4.0231   4.6524
     4.9508   5.0180   5.7768   5.9291   6.0739   6.1153   6.4770   6.7761
     6.9128   7.1838

          k =-2.0325 0.0000-0.2971 ( 36460 PWs)   bands (ev):

   -44.1582 -44.1582 -22.3035 -22.3035 -22.1978 -22.1978 -22.0788 -22.0788
    -7.4377  -7.4377  -6.8490  -6.8490  -6.1210  -6.1210  -4.9291  -4.9291
    -4.2816  -4.2816   0.7384   0.7384   1.1760   1.1760   1.5485   1.5485
     2.5305   2.5305   2.6069   2.6069   2.9673   2.9673   3.0507   3.0507
     3.7767   3.7767   3.8491   3.8491   3.9544   3.9544   4.4161   4.4161
     4.7393   4.7393   5.8591   5.8591   6.3456   6.3456   6.3907   6.3907
     7.1427   7.1427

     the Fermi energy is     5.2778 ev

!    total energy              =   -4240.93298013 Ry

     total all-electron energy =   -150287.626675 Ry
     estimated scf accuracy    <          4.5E-11 Ry
     smearing contrib. (-TS)   =       0.00005234 Ry
     internal energy E=F+TS    =   -4240.93303247 Ry

     The total energy is F=E-TS. E is the sum of the following terms:
     one-electron contribution =    -164.63850530 Ry
     hartree contribution      =     115.78402287 Ry
     xc contribution           =    -201.40769759 Ry
     ewald contribution        =    -223.16239301 Ry
     one-center paw contrib.   =   -3767.50845943 Ry

     convergence has been achieved in  21 iterations

     Forces acting on atoms (cartesian axes, Ry/au):

     atom    1 type  1   force =    -0.00000000   -0.02389483    0.00000000
     atom    2 type  1   force =     0.00000000    0.02389483    0.00000000
     atom    3 type  2   force =     0.00000000    0.00246409    0.00000000
     atom    4 type  2   force =     0.00000000   -0.00246409    0.00000000
     atom    5 type  2   force =     0.00000000    0.00525606   -0.00008127
     atom    6 type  2   force =     0.00000000   -0.00525606    0.00008127
     atom    7 type  2   force =    -0.00000000    0.00525606    0.00008127
     atom    8 type  2   force =     0.00000000   -0.00525606   -0.00008127
     atom    9 type  2   force =    -0.00000000    0.01990622    0.01495940
     atom   10 type  2   force =    -0.00000000   -0.01990622   -0.01495940
     atom   11 type  2   force =     0.00000000    0.01990622   -0.01495940
     atom   12 type  2   force =     0.00000000   -0.01990622    0.01495940

     Total force =     0.061194     Total SCF correction =     0.000009


     Computing stress (Cartesian axis) and pressure

          total   stress  (Ry/bohr**3)                   (kbar)     P=       -4.95
  -0.00001471   0.00000000   0.00000000           -2.16        0.00        0.00
   0.00000000  -0.00003328   0.00000000            0.00       -4.90        0.00
   0.00000000   0.00000000  -0.00005290            0.00        0.00       -7.78

 
     init_run     :     18.95s CPU     21.44s WALL (       1 calls)
     electrons    :   1071.34s CPU   1083.33s WALL (       1 calls)
     forces       :      6.64s CPU      6.86s WALL (       1 calls)
     stress       :     42.52s CPU     43.11s WALL (       1 calls)

     Called by init_run:
     wfcinit      :     14.78s CPU     15.00s WALL (       1 calls)
     potinit      :      1.28s CPU      1.34s WALL (       1 calls)
     hinit0       :      1.60s CPU      3.14s WALL (       1 calls)

     Called by electrons:
     c_bands      :    877.39s CPU    880.62s WALL (      22 calls)
     sum_band     :    161.69s CPU    166.16s WALL (      22 calls)
     v_of_rho     :      6.92s CPU      7.25s WALL (      22 calls)
     newd         :     17.95s CPU     22.11s WALL (      22 calls)
     PAW_pot      :      7.21s CPU      7.22s WALL (      22 calls)
     mix_rho      :      1.03s CPU      1.05s WALL (      22 calls)

     Called by c_bands:
     init_us_2    :     13.38s CPU     13.40s WALL (    2961 calls)
     cegterg      :    785.09s CPU    788.14s WALL (    1386 calls)

     Called by *egterg:
     cdiaghg      :     29.11s CPU     29.19s WALL (    8830 calls)
     h_psi        :    601.28s CPU    604.20s WALL (    8956 calls)
     s_psi        :     49.28s CPU     49.35s WALL (    8956 calls)
     g_psi        :      2.18s CPU      2.19s WALL (    7507 calls)

     Called by h_psi:
     h_psi:calbec :     43.03s CPU     43.10s WALL (    8956 calls)
     vloc_psi     :    505.72s CPU    508.41s WALL (    8956 calls)
     add_vuspsi   :     49.06s CPU     49.13s WALL (    8956 calls)

     General routines
     calbec       :     57.90s CPU     57.99s WALL (   10657 calls)
     fft          :      4.26s CPU      4.86s WALL (     310 calls)
     ffts         :      0.11s CPU      0.11s WALL (      44 calls)
     fftw         :    475.56s CPU    478.02s WALL (  487226 calls)
     interpolate  :      0.39s CPU      0.40s WALL (      22 calls)
 
     Parallel routines
 
     PWSCF        :  18m59.67s CPU  19m15.05s WALL

 
   This run was terminated on:  15:43:40  19Nov2021            

=------------------------------------------------------------------------------=
   JOB DONE.
=------------------------------------------------------------------------------=
