
     Program PWSCF v.6.8 starts on 19Nov2021 at 15:18:18 

     This program is part of the open-source Quantum ESPRESSO suite
     for quantum simulation of materials; please cite
         "P. Giannozzi et al., J. Phys.:Condens. Matter 21 395502 (2009);
         "P. Giannozzi et al., J. Phys.:Condens. Matter 29 465901 (2017);
         "P. Giannozzi et al., J. Chem. Phys. 152 154105 (2020);
          URL http://www.quantum-espresso.org", 
     in publications or presentations arising from this work. More details at
     http://www.quantum-espresso.org/quote

     Parallel version (MPI), running on    10 processors

     MPI processes distributed on     1 nodes
     R & G space division:  proc/nbgrp/npool/nimage =      10
     70495 MiB available memory on the printing compute node when the environment starts
 
     Waiting for input...
     Reading input from standard input

     Current dimensions of program PWSCF are:
     Max number of different atomic species (ntypx) = 10
     Max number of k-points (npk) =  40000
     Max angular momentum in pseudopotentials (lmaxx) =  4
     file Zr.pbe-spn-kjpaw_psl.1.0.0.UPF: wavefunction(s)  4S 4P renormalized
     file Te.pbe-n-kjpaw_psl.1.0.0.UPF: wavefunction(s)  5S 5P renormalized
     Message from routine setup:
     using ibrav=0 with symmetry is DISCOURAGED, use correct ibrav instead

     Subspace diagonalization in iterative solution of the eigenvalue problem:
     a serial algorithm will be used

 
     Parallelization info
     --------------------
     sticks:   dense  smooth     PW     G-vecs:    dense   smooth      PW
     Min         734     293     87               115340    29174    4753
     Max         735     295     88               115345    29176    4760
     Sum        7345    2937    873              1153415   291749   47557
 
     Using Slab Decomposition
 


     bravais-lattice index     =            0
     lattice parameter (alat)  =      15.5510  a.u.
     unit-cell volume          =    3018.5011 (a.u.)^3
     number of atoms/cell      =           12
     number of atomic types    =            2
     number of electrons       =        84.00
     number of Kohn-Sham states=           50
     kinetic-energy cutoff     =      80.0000  Ry
     charge density cutoff     =     800.0000  Ry
     scf convergence threshold =      1.0E-10
     mixing beta               =       0.7000
     number of iterations used =            8  plain     mixing
     Exchange-correlation= SLA  PW   PBX  PBC
                           (   1   4   3   4   0   0   0)

     celldm(1)=  15.551040  celldm(2)=   0.000000  celldm(3)=   0.000000
     celldm(4)=   0.000000  celldm(5)=   0.000000  celldm(6)=   0.000000

     crystal axes: (cart. coord. in units of alat)
               a(1) = (   0.246007  -0.969268   0.000000 )  
               a(2) = (   0.246007   0.969268   0.000000 )  
               a(3) = (   0.000000   0.000000   1.683031 )  

     reciprocal axes: (cart. coord. in units 2 pi/alat)
               b(1) = (  2.032465 -0.515853  0.000000 )  
               b(2) = (  2.032465  0.515853  0.000000 )  
               b(3) = (  0.000000  0.000000  0.594166 )  


     PseudoPot. # 1 for Zr read from file:
     pseudo/Zr.pbe-spn-kjpaw_psl.1.0.0.UPF
     MD5 check sum: 02112c41713a0468aff2bb39ef194e36
     Pseudo is Projector augmented-wave + core cor, Zval = 12.0
     Generated using &quot;atomic&quot; code by A. Dal Corso  v.6.2.2
     Shape of augmentation charge: PSQ
     Using radial grid of 1225 points,  6 beta functions with: 
                l(1) =   0
                l(2) =   0
                l(3) =   1
                l(4) =   1
                l(5) =   2
                l(6) =   2
     Q(r) pseudized with 0 coefficients 


     PseudoPot. # 2 for Te read from file:
     pseudo/Te.pbe-n-kjpaw_psl.1.0.0.UPF
     MD5 check sum: 66247bff2bd9dbf220fbb0bf5ab56e9d
     Pseudo is Projector augmented-wave + core cor, Zval =  6.0
     Generated using &quot;atomic&quot; code by A. Dal Corso  v.6.3
     Shape of augmentation charge: PSQ
     Using radial grid of 1245 points,  6 beta functions with: 
                l(1) =   0
                l(2) =   0
                l(3) =   1
                l(4) =   1
                l(5) =   2
                l(6) =   2
     Q(r) pseudized with 0 coefficients 


     atomic species   valence    mass     pseudopotential
        Zr            12.00    91.22000     Zr( 1.00)
        Te             6.00   127.60000     Te( 1.00)

      8 Sym. Ops., with inversion, found ( 4 have fractional translation)



   Cartesian axes

     site n.     atom                  positions (alat units)
         1           Zr  tau(   1) = (   0.0000000   0.6103227   0.4207578  )
         2           Zr  tau(   2) = (   0.2460067   0.3589454   1.2622733  )
         3           Te  tau(   3) = (   0.2460067   0.3343431   0.4207578  )
         4           Te  tau(   4) = (   0.0000000   0.6349250   1.2622733  )
         5           Te  tau(   5) = (   0.2460067   0.8076794   0.2505982  )
         6           Te  tau(   6) = (   0.0000000   0.1615887   1.4324328  )
         7           Te  tau(   7) = (   0.2460067   0.8076794   0.5909173  )
         8           Te  tau(   8) = (   0.0000000   0.1615887   1.0921138  )
         9           Te  tau(   9) = (   0.0000000   0.4066315   0.7230014  )
        10           Te  tau(  10) = (   0.2460067   0.5626366   0.9600296  )
        11           Te  tau(  11) = (   0.0000000   0.4066315   0.1185141  )
        12           Te  tau(  12) = (   0.2460067   0.5626366   1.5645170  )

     number of k points=    63  Methfessel-Paxton smearing, width (Ry)=  0.0030
                       cart. coord. in units 2pi/alat
        k(    1) = (   0.0000000   0.0000000   0.0000000), wk =   0.0078125
        k(    2) = (   0.0000000   0.0000000   0.1485415), wk =   0.0156250
        k(    3) = (   0.0000000   0.0000000  -0.2970830), wk =   0.0078125
        k(    4) = (   0.2540581   0.0644816   0.0000000), wk =   0.0312500
        k(    5) = (   0.2540581   0.0644816   0.1485415), wk =   0.0625000
        k(    6) = (   0.2540581   0.0644816  -0.2970830), wk =   0.0312500
        k(    7) = (   0.5081162   0.1289633   0.0000000), wk =   0.0312500
        k(    8) = (   0.5081162   0.1289633   0.1485415), wk =   0.0625000
        k(    9) = (   0.5081162   0.1289633  -0.2970830), wk =   0.0312500
        k(   10) = (   0.7621743   0.1934449   0.0000000), wk =   0.0312500
        k(   11) = (   0.7621743   0.1934449   0.1485415), wk =   0.0625000
        k(   12) = (   0.7621743   0.1934449  -0.2970830), wk =   0.0312500
        k(   13) = (  -1.0162324  -0.2579266   0.0000000), wk =   0.0156250
        k(   14) = (  -1.0162324  -0.2579266   0.1485415), wk =   0.0312500
        k(   15) = (  -1.0162324  -0.2579266  -0.2970830), wk =   0.0156250
        k(   16) = (   0.5081162   0.0000000   0.0000000), wk =   0.0156250
        k(   17) = (   0.5081162   0.0000000   0.1485415), wk =   0.0312500
        k(   18) = (   0.5081162   0.0000000  -0.2970830), wk =   0.0156250
        k(   19) = (   0.7621743   0.0644816   0.0000000), wk =   0.0312500
        k(   20) = (   0.7621743   0.0644816   0.1485415), wk =   0.0625000
        k(   21) = (   0.7621743   0.0644816  -0.2970830), wk =   0.0312500
        k(   22) = (   1.0162324   0.1289633   0.0000000), wk =   0.0312500
        k(   23) = (   1.0162324   0.1289633   0.1485415), wk =   0.0625000
        k(   24) = (   1.0162324   0.1289633  -0.2970830), wk =   0.0312500
        k(   25) = (  -0.7621743  -0.3224082   0.0000000), wk =   0.0312500
        k(   26) = (  -0.7621743  -0.3224082   0.1485415), wk =   0.0625000
        k(   27) = (  -0.7621743  -0.3224082  -0.2970830), wk =   0.0312500
        k(   28) = (  -0.5081162  -0.2579266   0.0000000), wk =   0.0312500
        k(   29) = (  -0.5081162  -0.2579266   0.1485415), wk =   0.0625000
        k(   30) = (  -0.5081162  -0.2579266  -0.2970830), wk =   0.0312500
        k(   31) = (  -0.2540581  -0.1934449   0.0000000), wk =   0.0312500
        k(   32) = (  -0.2540581  -0.1934449   0.1485415), wk =   0.0625000
        k(   33) = (  -0.2540581  -0.1934449  -0.2970830), wk =   0.0312500
        k(   34) = (   0.0000000  -0.1289633   0.0000000), wk =   0.0156250
        k(   35) = (   0.0000000  -0.1289633   0.1485415), wk =   0.0312500
        k(   36) = (   0.0000000  -0.1289633  -0.2970830), wk =   0.0156250
        k(   37) = (   1.0162324   0.0000000   0.0000000), wk =   0.0156250
        k(   38) = (   1.0162324   0.0000000   0.1485415), wk =   0.0312500
        k(   39) = (   1.0162324   0.0000000  -0.2970830), wk =   0.0156250
        k(   40) = (   1.2702905   0.0644816   0.0000000), wk =   0.0312500
        k(   41) = (   1.2702905   0.0644816   0.1485415), wk =   0.0625000
        k(   42) = (   1.2702905   0.0644816  -0.2970830), wk =   0.0312500
        k(   43) = (  -0.5081162  -0.3868899   0.0000000), wk =   0.0312500
        k(   44) = (  -0.5081162  -0.3868899   0.1485415), wk =   0.0625000
        k(   45) = (  -0.5081162  -0.3868899  -0.2970830), wk =   0.0312500
        k(   46) = (  -0.2540581  -0.3224082   0.0000000), wk =   0.0312500
        k(   47) = (  -0.2540581  -0.3224082   0.1485415), wk =   0.0625000
        k(   48) = (  -0.2540581  -0.3224082  -0.2970830), wk =   0.0312500
        k(   49) = (   0.0000000  -0.2579266   0.0000000), wk =   0.0156250
        k(   50) = (   0.0000000  -0.2579266   0.1485415), wk =   0.0312500
        k(   51) = (   0.0000000  -0.2579266  -0.2970830), wk =   0.0156250
        k(   52) = (   1.5243485   0.0000000   0.0000000), wk =   0.0156250
        k(   53) = (   1.5243485   0.0000000   0.1485415), wk =   0.0312500
        k(   54) = (   1.5243485   0.0000000  -0.2970830), wk =   0.0156250
        k(   55) = (  -0.2540581  -0.4513715   0.0000000), wk =   0.0312500
        k(   56) = (  -0.2540581  -0.4513715   0.1485415), wk =   0.0625000
        k(   57) = (  -0.2540581  -0.4513715  -0.2970830), wk =   0.0312500
        k(   58) = (   0.0000000  -0.3868899   0.0000000), wk =   0.0156250
        k(   59) = (   0.0000000  -0.3868899   0.1485415), wk =   0.0312500
        k(   60) = (   0.0000000  -0.3868899  -0.2970830), wk =   0.0156250
        k(   61) = (  -2.0324647   0.0000000   0.0000000), wk =   0.0078125
        k(   62) = (  -2.0324647   0.0000000   0.1485415), wk =   0.0156250
        k(   63) = (  -2.0324647   0.0000000  -0.2970830), wk =   0.0078125

     Dense  grid:  1153415 G-vectors     FFT dimensions: ( 144, 144, 240)

     Smooth grid:   291749 G-vectors     FFT dimensions: (  90,  90, 150)

     Estimated max dynamical RAM per process >     657.19 MB

     Estimated total dynamical RAM >       6.42 GB

     Initial potential from superposition of free atoms

     starting charge   83.99353, renormalised to   84.00000
     Starting wfcs are   66 randomized atomic wfcs
     Checking if some PAW data can be deallocated... 

     total cpu time spent up to now is       19.3 secs

     Self-consistent Calculation

     iteration #  1     ecut=    80.00 Ry     beta= 0.70
     Davidson diagonalization with overlap
     ethr =  1.00E-02,  avg # of iterations =  2.0

     Threshold (ethr) on eigenvalues was too large:
     Diagonalizing with lowered threshold

     Davidson diagonalization with overlap
     ethr =  3.84E-04,  avg # of iterations =  4.1

     total cpu time spent up to now is      101.8 secs

     total energy              =   -4240.72082708 Ry
     estimated scf accuracy    <       0.42811912 Ry

     iteration #  2     ecut=    80.00 Ry     beta= 0.70
     Davidson diagonalization with overlap
     ethr =  5.10E-04,  avg # of iterations =  7.4

     total cpu time spent up to now is      161.2 secs

     total energy              =   -4240.62533185 Ry
     estimated scf accuracy    <       2.16712826 Ry

     iteration #  3     ecut=    80.00 Ry     beta= 0.70
     Davidson diagonalization with overlap
     ethr =  5.10E-04,  avg # of iterations =  5.1

     total cpu time spent up to now is      211.0 secs

     total energy              =   -4240.91946231 Ry
     estimated scf accuracy    <       0.02040744 Ry

     iteration #  4     ecut=    80.00 Ry     beta= 0.70
     Davidson diagonalization with overlap
     c_bands:  1 eigenvalues not converged
     c_bands:  2 eigenvalues not converged
     c_bands:  1 eigenvalues not converged
     c_bands:  1 eigenvalues not converged
     c_bands:  1 eigenvalues not converged
     c_bands:  1 eigenvalues not converged
     c_bands:  1 eigenvalues not converged
     c_bands:  1 eigenvalues not converged
     c_bands:  1 eigenvalues not converged
     c_bands:  1 eigenvalues not converged
     ethr =  2.43E-05,  avg # of iterations = 16.3

     total cpu time spent up to now is      300.5 secs

     total energy              =   -4240.93708215 Ry
     estimated scf accuracy    <       0.10985727 Ry

     iteration #  5     ecut=    80.00 Ry     beta= 0.70
     Davidson diagonalization with overlap
     ethr =  2.43E-05,  avg # of iterations =  5.3

     total cpu time spent up to now is      345.8 secs

     total energy              =   -4240.94019866 Ry
     estimated scf accuracy    <       0.02437365 Ry

     iteration #  6     ecut=    80.00 Ry     beta= 0.70
     Davidson diagonalization with overlap
     ethr =  2.43E-05,  avg # of iterations =  2.6

     total cpu time spent up to now is      383.5 secs

     total energy              =   -4240.94108957 Ry
     estimated scf accuracy    <       0.00380553 Ry

     iteration #  7     ecut=    80.00 Ry     beta= 0.70
     Davidson diagonalization with overlap
     c_bands:  1 eigenvalues not converged
     c_bands:  1 eigenvalues not converged
     ethr =  4.53E-06,  avg # of iterations = 11.7

     total cpu time spent up to now is      449.2 secs

     total energy              =   -4240.94296636 Ry
     estimated scf accuracy    <       0.00260265 Ry

     iteration #  8     ecut=    80.00 Ry     beta= 0.70
     Davidson diagonalization with overlap
     c_bands:  1 eigenvalues not converged
     ethr =  3.10E-06,  avg # of iterations =  2.4

     total cpu time spent up to now is      485.5 secs

     total energy              =   -4240.94297437 Ry
     estimated scf accuracy    <       0.00059830 Ry

     iteration #  9     ecut=    80.00 Ry     beta= 0.70
     Davidson diagonalization with overlap
     ethr =  7.12E-07,  avg # of iterations =  6.0

     total cpu time spent up to now is      529.8 secs

     total energy              =   -4240.94309790 Ry
     estimated scf accuracy    <       0.00000864 Ry

     iteration # 10     ecut=    80.00 Ry     beta= 0.70
     Davidson diagonalization with overlap
     c_bands:  1 eigenvalues not converged
     c_bands:  1 eigenvalues not converged
     c_bands:  1 eigenvalues not converged
     ethr =  1.03E-08,  avg # of iterations = 11.4

     total cpu time spent up to now is      602.8 secs

     total energy              =   -4240.94312075 Ry
     estimated scf accuracy    <       0.00001432 Ry

     iteration # 11     ecut=    80.00 Ry     beta= 0.70
     Davidson diagonalization with overlap
     c_bands:  1 eigenvalues not converged
     ethr =  1.03E-08,  avg # of iterations =  4.0

     total cpu time spent up to now is      644.6 secs

     total energy              =   -4240.94312310 Ry
     estimated scf accuracy    <       0.00000003 Ry

     iteration # 12     ecut=    80.00 Ry     beta= 0.70
     Davidson diagonalization with overlap
     c_bands:  1 eigenvalues not converged
     ethr =  3.28E-11,  avg # of iterations = 13.0

     total cpu time spent up to now is      738.0 secs

     total energy              =   -4240.94312320 Ry
     estimated scf accuracy    <       0.00000095 Ry

     iteration # 13     ecut=    80.00 Ry     beta= 0.70
     Davidson diagonalization with overlap
     ethr =  3.28E-11,  avg # of iterations =  6.8

     total cpu time spent up to now is      799.1 secs

     total energy              =   -4240.94312331 Ry
     estimated scf accuracy    <          8.8E-09 Ry

     iteration # 14     ecut=    80.00 Ry     beta= 0.70
     Davidson diagonalization with overlap
     ethr =  1.05E-11,  avg # of iterations =  4.3

     total cpu time spent up to now is      839.8 secs

     total energy              =   -4240.94312331 Ry
     estimated scf accuracy    <          5.8E-10 Ry

     iteration # 15     ecut=    80.00 Ry     beta= 0.70
     Davidson diagonalization with overlap
     ethr =  6.95E-13,  avg # of iterations =  9.1

     total cpu time spent up to now is      904.7 secs

     total energy              =   -4240.94312331 Ry
     estimated scf accuracy    <          1.2E-09 Ry

     iteration # 16     ecut=    80.00 Ry     beta= 0.70
     Davidson diagonalization with overlap
     ethr =  6.95E-13,  avg # of iterations =  2.3

     total cpu time spent up to now is      942.8 secs

     total energy              =   -4240.94312331 Ry
     estimated scf accuracy    <          1.6E-10 Ry

     iteration # 17     ecut=    80.00 Ry     beta= 0.70
     Davidson diagonalization with overlap
     ethr =  1.88E-13,  avg # of iterations =  6.4

     total cpu time spent up to now is      990.7 secs

     End of self-consistent calculation

          k = 0.0000 0.0000 0.0000 ( 36359 PWs)   bands (ev):

   -44.1497 -44.1497 -22.2897 -22.2897 -22.1872 -22.1872 -22.0720 -22.0719
    -7.6759  -7.1562  -7.0705  -6.7867  -6.5098  -5.3380  -5.0902  -4.8940
    -4.8394  -3.8602   0.4307   0.7002   0.7672   1.0703   1.4984   1.5714
     2.4137   2.4586   2.6448   3.0072   3.0115   3.0209   3.1237   3.4968
     3.5790   3.6431   3.8758   4.0495   4.1327   4.2954   4.3224   4.6302
     5.0821   5.5504   5.5855   5.6508   5.8508   6.0222   6.3590   6.8105
     6.9402   7.2901

          k = 0.0000 0.0000 0.1485 ( 36415 PWs)   bands (ev):

   -44.1497 -44.1497 -22.2897 -22.2897 -22.1872 -22.1872 -22.0720 -22.0720
    -7.6368  -7.3411  -6.9194  -6.7965  -6.4040  -5.6925  -4.9108  -4.8505
    -4.7018  -3.9774   0.4769   0.7381   0.9121   1.0494   1.0535   2.0060
     2.1072   2.4398   2.6000   3.0086   3.0186   3.1001   3.3513   3.3666
     3.6696   3.7329   3.8609   4.0422   4.0831   4.3152   4.3357   4.6441
     4.8966   5.0531   5.7307   5.9286   6.0194   6.0430   6.6015   6.6742
     6.7726   7.2633

          k = 0.0000 0.0000-0.2971 ( 36410 PWs)   bands (ev):

   -44.1497 -44.1497 -22.2897 -22.2897 -22.1872 -22.1872 -22.0720 -22.0720
    -7.5219  -7.5219  -6.8309  -6.8309  -6.1017  -6.1017  -4.8777  -4.8777
    -4.2880  -4.2880   0.6666   0.6666   0.8677   0.8677   1.4287   1.4287
     2.5113   2.5113   2.6895   2.6895   3.0132   3.0132   3.3876   3.3876
     3.8434   3.8434   3.9267   3.9267   4.3226   4.3226   4.4179   4.4179
     4.7124   4.7124   5.9620   5.9620   6.2321   6.2321   6.3806   6.3806
     7.1395   7.1395

          k = 0.2541 0.0645 0.0000 ( 36396 PWs)   bands (ev):

   -44.1493 -44.1493 -22.2878 -22.2878 -22.1972 -22.1972 -22.0708 -22.0707
    -7.5620  -7.0759  -6.9667  -6.7404  -6.4492  -5.3011  -5.0827  -4.8529
    -4.7974  -3.9994   0.5178   0.8343   0.9027   1.1889   1.3065   1.4586
     1.9229   2.0544   2.2149   2.5326   2.5865   3.0356   3.4553   3.6750
     3.6896   3.7133   3.7622   3.7974   4.0163   4.1766   4.2262   4.2606
     4.4661   4.6865   5.7085   5.9884   6.2756   6.5461   6.6219   6.8335
     7.0050   7.1454

          k = 0.2541 0.0645 0.1485 ( 36423 PWs)   bands (ev):

   -44.1493 -44.1493 -22.2878 -22.2878 -22.1972 -22.1972 -22.0708 -22.0707
    -7.5239  -7.2391  -6.8486  -6.7489  -6.3352  -5.6375  -4.8888  -4.8106
    -4.7047  -4.0933   0.5515   0.8746   0.9789   0.9899   1.1462   1.5830
     1.8552   2.3164   2.4389   2.5460   2.5504   2.9242   3.2698   3.3035
     3.6418   3.6831   3.8535   3.8975   4.0040   4.0994   4.2385   4.2900
     4.6908   5.0141   5.8093   5.8334   6.2116   6.2727   6.4707   6.6831
     7.2568   7.2997

          k = 0.2541 0.0645-0.2971 ( 36436 PWs)   bands (ev):

   -44.1493 -44.1493 -22.2878 -22.2878 -22.1972 -22.1972 -22.0707 -22.0707
    -7.4124  -7.4124  -6.7778  -6.7778  -6.0319  -6.0319  -4.8433  -4.8433
    -4.3513  -4.3513   0.6975   0.6975   0.9775   0.9775   1.2717   1.2717
     2.2999   2.2999   2.5620   2.5620   2.6851   2.6851   3.1081   3.1081
     3.5958   3.5958   3.8747   3.8747   4.0427   4.0427   4.2871   4.2871
     5.1611   5.1611   5.7467   5.7467   6.0910   6.0910   6.4608   6.4608
     7.4388   7.4389

          k = 0.5081 0.1290 0.0000 ( 36499 PWs)   bands (ev):

   -44.1484 -44.1484 -22.2831 -22.2830 -22.2212 -22.2212 -22.0678 -22.0677
    -7.2428  -6.8874  -6.6678  -6.6108  -6.2532  -5.2326  -5.1140  -4.7448
    -4.6938  -4.4196   0.5326   0.6852   0.7138   1.1937   1.2832   1.5067
     1.6684   1.8124   2.0114   2.1168   2.1692   2.3112   2.3543   3.2685
     3.3701   3.4324   3.4757   3.5793   3.7655   3.8635   3.9422   4.1550
     4.5903   5.2823   5.4081   5.9041   5.9485   6.5491   6.5615   6.8589
     7.3949   7.5671

          k = 0.5081 0.1290 0.1485 ( 36476 PWs)   bands (ev):

   -44.1484 -44.1484 -22.2831 -22.2830 -22.2212 -22.2212 -22.0678 -22.0677
    -7.2090  -6.9753  -6.6500  -6.6159  -6.1248  -5.5061  -4.9194  -4.7221
    -4.6891  -4.4523   0.5157   0.7278   0.8536   1.0748   1.2308   1.4279
     1.4792   1.6514   2.0335   2.0769   2.3234   2.5313   2.8186   3.2961
     3.3668   3.4133   3.4818   3.5820   3.6502   3.7650   3.8462   4.2152
     4.3836   4.5760   6.0400   6.1066   6.2266   6.5548   6.6037   6.7324
     7.2373   7.4880

          k = 0.5081 0.1290-0.2971 ( 36466 PWs)   bands (ev):

   -44.1484 -44.1484 -22.2830 -22.2830 -22.2212 -22.2212 -22.0678 -22.0678
    -7.1123  -7.1123  -6.6300  -6.6300  -5.8400  -5.8400  -4.7940  -4.7940
    -4.5542  -4.5542   0.6106   0.6106   1.0869   1.0869   1.2291   1.2291
     1.3729   1.3729   2.0585   2.0585   2.7634   2.7634   3.1192   3.1192
     3.3513   3.3513   3.5502   3.5502   3.7018   3.7018   3.8299   3.8299
     4.3017   4.3017   6.2748   6.2748   6.5376   6.5376   6.7811   6.7811
     7.0956   7.0956

          k = 0.7622 0.1934 0.0000 ( 36521 PWs)   bands (ev):

   -44.1475 -44.1475 -22.2782 -22.2782 -22.2451 -22.2451 -22.0648 -22.0648
    -6.8488  -6.7214  -6.3558  -6.2184  -5.9100  -5.3076  -5.2590  -5.0627
    -4.6229  -4.5877   0.0086   0.2368   0.6424   1.1246   1.1412   1.2386
     1.4762   1.5944   1.9190   1.9724   2.2713   2.4139   2.4780   2.7546
     2.7907   3.2585   3.3057   3.3695   3.6364   3.6723   3.7788   3.7960
     3.9555   4.5677   5.7745   6.1938   6.2698   6.7131   6.7451   6.8427
     7.2195   7.5733

          k = 0.7622 0.1934 0.1485 ( 36503 PWs)   bands (ev):

   -44.1475 -44.1475 -22.2782 -22.2782 -22.2451 -22.2451 -22.0648 -22.0648
    -6.8303  -6.7394  -6.3515  -6.2714  -5.8038  -5.4205  -5.1958  -5.0824
    -4.6124  -4.5885   0.0755   0.3501   0.5194   0.9540   1.1366   1.2075
     1.4917   1.6613   1.7514   2.0820   2.1358   2.6390   2.6868   2.7949
     2.8677   3.1389   3.2735   3.3828   3.4876   3.6297   3.6701   3.9023
     3.9921   4.6939   5.4352   6.2592   6.5632   6.6147   6.7729   6.9146
     6.9959   7.4855

          k = 0.7622 0.1934-0.2971 ( 36522 PWs)   bands (ev):

   -44.1475 -44.1475 -22.2782 -22.2782 -22.2451 -22.2451 -22.0648 -22.0648
    -6.7847  -6.7847  -6.3291  -6.3291  -5.6071  -5.6071  -5.1321  -5.1321
    -4.5959  -4.5959   0.2623   0.2623   0.6741   0.6741   1.0722   1.0722
     1.5739   1.5739   1.9900   1.9900   2.3691   2.3691   2.7970   2.7970
     2.9960   2.9960   3.3837   3.3837   3.5749   3.5749   3.8072   3.8072
     4.1733   4.1733   6.0017   6.0017   6.3801   6.3801   6.8603   6.8603
     7.3243   7.3243

          k =-1.0162-0.2579 0.0000 ( 36506 PWs)   bands (ev):

   -44.1471 -44.1471 -22.2760 -22.2760 -22.2551 -22.2551 -22.0635 -22.0635
    -6.6901  -6.6700  -5.8122  -5.8010  -5.7198  -5.7084  -5.4902  -5.4896
    -4.5654  -4.5453   0.0691   0.0949   0.4151   0.4348   1.0118   1.0204
     1.4674   1.6737   2.2315   2.3589   2.3598   2.3642   2.7891   2.8213
     2.8227   2.9148   3.2617   3.2625   3.2988   3.4809   3.5999   3.6305
     3.8120   3.9577   6.3908   6.4190   6.4728   6.5570   6.9479   7.0195
     7.0327   7.0339

          k =-1.0162-0.2579 0.1485 ( 36506 PWs)   bands (ev):

   -44.1471 -44.1471 -22.2760 -22.2760 -22.2551 -22.2551 -22.0635 -22.0635
    -6.6865  -6.6723  -5.8238  -5.8149  -5.7131  -5.7068  -5.4778  -5.4775
    -4.5677  -4.5535  -0.0212  -0.0127   0.6357   0.6412   1.0257   1.0506
     1.4640   1.5830   1.9309   2.0066   2.3714   2.3833   2.7442   2.7451
     2.9481   2.9838   3.1620   3.2150   3.5510   3.5559   3.7083   3.7365
     4.0881   4.1130   5.8766   5.8862   6.4020   6.4752   6.9378   6.9744
     7.2427   7.2699

          k =-1.0162-0.2579-0.2971 ( 36528 PWs)   bands (ev):

   -44.1471 -44.1471 -22.2760 -22.2760 -22.2551 -22.2551 -22.0635 -22.0635
    -6.6787  -6.6787  -5.8306  -5.8306  -5.7069  -5.7069  -5.4658  -5.4658
    -4.5659  -4.5659  -0.0777  -0.0777   0.9118   0.9118   1.0011   1.0011
     1.5704   1.5704   1.5826   1.5826   2.3724   2.3724   2.7824   2.7824
     2.9320   2.9320   3.1889   3.1889   3.6023   3.6023   3.7788   3.7788
     4.5522   4.5522   5.3217   5.3217   6.3658   6.3658   6.9772   6.9772
     7.3161   7.3161

          k = 0.5081 0.0000 0.0000 ( 36503 PWs)   bands (ev):

   -44.1484 -44.1484 -22.2831 -22.2830 -22.2212 -22.2212 -22.0678 -22.0677
    -7.2485  -6.8894  -6.6688  -6.6040  -6.2488  -5.2334  -5.1106  -4.7404
    -4.6993  -4.4192   0.5322   0.6918   0.7098   1.1624   1.2781   1.4858
     1.6722   1.8185   2.0258   2.1040   2.1301   2.3048   2.3615   3.2514
     3.3847   3.4128   3.5315   3.5990   3.7718   3.8495   3.9847   4.1922
     4.5925   5.2824   5.4139   5.9271   5.9401   6.5092   6.5105   6.8942
     7.4207   7.5756

          k = 0.5081 0.0000 0.1485 ( 36453 PWs)   bands (ev):

   -44.1484 -44.1484 -22.2831 -22.2830 -22.2212 -22.2212 -22.0678 -22.0677
    -7.2146  -6.9795  -6.6461  -6.6093  -6.1231  -5.5067  -4.9136  -4.7240
    -4.6897  -4.4531   0.5144   0.7226   0.8587   1.0765   1.2040   1.4411
     1.4413   1.6454   2.0286   2.0818   2.3280   2.5019   2.8114   3.2830
     3.3645   3.4434   3.4918   3.5970   3.6453   3.8211   3.8422   4.2506
     4.3987   4.5757   6.0391   6.1234   6.2331   6.5040   6.5681   6.7633
     7.2622   7.4931

          k = 0.5081 0.0000-0.2971 ( 36452 PWs)   bands (ev):

   -44.1484 -44.1484 -22.2830 -22.2830 -22.2212 -22.2212 -22.0678 -22.0678
    -7.1177  -7.1177  -6.6236  -6.6236  -5.8404  -5.8404  -4.7898  -4.7898
    -4.5570  -4.5570   0.6065   0.6065   1.0871   1.0871   1.2528   1.2528
     1.3247   1.3247   2.0587   2.0587   2.7544   2.7544   3.0986   3.0986
     3.3457   3.3457   3.5973   3.5973   3.7149   3.7149   3.8329   3.8329
     4.3253   4.3253   6.2905   6.2905   6.5027   6.5027   6.7964   6.7964
     7.0974   7.0974

          k = 0.7622 0.0645 0.0000 ( 36505 PWs)   bands (ev):

   -44.1475 -44.1475 -22.2782 -22.2782 -22.2451 -22.2451 -22.0648 -22.0648
    -6.8581  -6.7196  -6.3466  -6.2207  -5.9093  -5.3031  -5.2597  -5.0623
    -4.6158  -4.5959   0.0030   0.2482   0.6658   1.1291   1.1576   1.2529
     1.4344   1.5517   1.8956   1.9865   2.2381   2.3815   2.4608   2.7272
     2.7756   3.3146   3.3351   3.3790   3.6087   3.6558   3.8197   3.8279
     3.9735   4.6095   5.7728   6.2083   6.2348   6.6816   6.7995   6.8026
     7.2415   7.5783

          k = 0.7622 0.0645 0.1485 ( 36509 PWs)   bands (ev):

   -44.1475 -44.1475 -22.2782 -22.2782 -22.2451 -22.2451 -22.0648 -22.0648
    -6.8387  -6.7400  -6.3427  -6.2697  -5.8048  -5.4205  -5.1930  -5.0815
    -4.6075  -4.5944   0.0740   0.3563   0.5288   0.9742   1.1357   1.2219
     1.4547   1.6593   1.7774   2.0093   2.0643   2.6542   2.6756   2.7665
     2.8548   3.1399   3.3388   3.4006   3.4533   3.6463   3.6935   3.9199
     4.0367   4.6928   5.4620   6.2421   6.5685   6.6060   6.7897   6.9114
     6.9751   7.5041

          k = 0.7622 0.0645-0.2971 ( 36472 PWs)   bands (ev):

   -44.1475 -44.1475 -22.2782 -22.2782 -22.2451 -22.2451 -22.0648 -22.0648
    -6.7901  -6.7901  -6.3224  -6.3224  -5.6087  -5.6087  -5.1299  -5.1299
    -4.5963  -4.5963   0.2663   0.2663   0.6696   0.6696   1.0975   1.0975
     1.5679   1.5679   1.9410   1.9410   2.3343   2.3343   2.7923   2.7923
     2.9900   2.9900   3.4496   3.4496   3.5714   3.5714   3.7980   3.7980
     4.1970   4.1970   6.0261   6.0261   6.3815   6.3815   6.8261   6.8261
     7.3507   7.3507

          k = 1.0162 0.1290 0.0000 ( 36514 PWs)   bands (ev):

   -44.1471 -44.1471 -22.2760 -22.2760 -22.2551 -22.2551 -22.0635 -22.0635
    -6.6901  -6.6700  -5.8118  -5.8015  -5.7198  -5.7084  -5.4904  -5.4893
    -4.5654  -4.5453   0.0632   0.1009   0.4096   0.4405   1.0065   1.0272
     1.4726   1.6651   2.2343   2.3489   2.3521   2.3677   2.7897   2.8162
     2.8527   2.9123   3.2386   3.2749   3.3078   3.4750   3.6159   3.6175
     3.7953   3.9693   6.3856   6.4251   6.4680   6.5625   6.9598   7.0219
     7.0275   7.0348

          k = 1.0162 0.1290 0.1485 ( 36524 PWs)   bands (ev):

   -44.1471 -44.1471 -22.2760 -22.2760 -22.2551 -22.2551 -22.0635 -22.0635
    -6.6865  -6.6723  -5.8235  -5.8152  -5.7130  -5.7068  -5.4783  -5.4771
    -4.5677  -4.5535  -0.0233  -0.0110   0.6353   0.6422   1.0296   1.0476
     1.4684   1.5797   1.9388   1.9943   2.3651   2.3793   2.6973   2.8004
     2.9628   2.9999   3.1385   3.2147   3.5326   3.5960   3.6987   3.7158
     4.0749   4.1317   5.8661   5.8992   6.3992   6.4778   6.9446   6.9731
     7.2467   7.2661

          k = 1.0162 0.1290-0.2971 ( 36516 PWs)   bands (ev):

   -44.1471 -44.1471 -22.2760 -22.2760 -22.2551 -22.2551 -22.0635 -22.0635
    -6.6787  -6.6787  -5.8306  -5.8306  -5.7069  -5.7069  -5.4658  -5.4658
    -4.5659  -4.5659  -0.0778  -0.0778   0.9109   0.9109   1.0032   1.0032
     1.5660   1.5660   1.5878   1.5878   2.3623   2.3623   2.7661   2.7661
     2.9832   2.9832   3.1622   3.1622   3.6084   3.6084   3.7716   3.7716
     4.5526   4.5526   5.3237   5.3237   6.3655   6.3655   6.9794   6.9794
     7.3161   7.3161

          k =-0.7622-0.3224 0.0000 ( 36511 PWs)   bands (ev):

   -44.1475 -44.1475 -22.2782 -22.2782 -22.2451 -22.2451 -22.0648 -22.0648
    -6.8341  -6.7254  -6.3689  -6.2150  -5.9111  -5.3140  -5.2579  -5.0633
    -4.6288  -4.5802   0.0167   0.2211   0.6110   1.0972   1.1582   1.2198
     1.4995   1.6611   1.9544   1.9674   2.3364   2.4366   2.5032   2.7892
     2.8106   3.1790   3.2799   3.3904   3.5919   3.6559   3.7716   3.7940
     3.9191   4.4995   5.7772   6.1864   6.3145   6.6635   6.7612   6.9097
     7.1821   7.5710

          k =-0.7622-0.3224 0.1485 ( 36492 PWs)   bands (ev):

   -44.1475 -44.1475 -22.2782 -22.2782 -22.2451 -22.2451 -22.0648 -22.0648
    -6.8172  -6.7393  -6.3642  -6.2739  -5.8023  -5.4205  -5.1998  -5.0837
    -4.6164  -4.5832   0.0772   0.3428   0.5048   0.9295   1.1443   1.1877
     1.5407   1.6572   1.7284   2.1871   2.2355   2.6249   2.6964   2.8250
     2.8818   3.1595   3.1865   3.3673   3.4786   3.6238   3.6535   3.8745
     3.9173   4.6942   5.3994   6.2870   6.5408   6.6224   6.7565   6.9444
     7.0206   7.4527

          k =-0.7622-0.3224-0.2971 ( 36508 PWs)   bands (ev):

   -44.1475 -44.1475 -22.2782 -22.2782 -22.2451 -22.2451 -22.0648 -22.0648
    -6.7769  -6.7769  -6.3388  -6.3388  -5.6049  -5.6049  -5.1353  -5.1353
    -4.5953  -4.5953   0.2562   0.2562   0.6804   0.6804   1.0431   1.0431
     1.5803   1.5803   2.0462   2.0462   2.4367   2.4367   2.8065   2.8065
     3.0035   3.0035   3.2919   3.2919   3.5780   3.5780   3.8068   3.8068
     4.1426   4.1426   5.9696   5.9696   6.3767   6.3767   6.9182   6.9182
     7.2793   7.2793

          k =-0.5081-0.2579 0.0000 ( 36480 PWs)   bands (ev):

   -44.1484 -44.1484 -22.2831 -22.2830 -22.2212 -22.2212 -22.0678 -22.0677
    -7.2282  -6.8833  -6.6651  -6.6268  -6.2642  -5.2307  -5.1222  -4.7516
    -4.6843  -4.4206   0.5362   0.6700   0.7161   1.2853   1.2945   1.5577
     1.6643   1.8030   1.9842   2.1513   2.2394   2.3226   2.3381   3.3121
     3.3541   3.3666   3.4603   3.4964   3.7363   3.8726   3.8797   4.0808
     4.5818   5.2788   5.3964   5.8175   6.0032   6.6482   6.6817   6.7743
     7.3256   7.5497

          k =-0.5081-0.2579 0.1485 ( 36485 PWs)   bands (ev):

   -44.1484 -44.1484 -22.2831 -22.2830 -22.2212 -22.2212 -22.0678 -22.0677
    -7.1945  -6.9650  -6.6602  -6.6318  -6.1290  -5.5045  -4.9329  -4.7190
    -4.6872  -4.4503   0.5194   0.7363   0.8411   1.0713   1.3053   1.4257
     1.5454   1.6651   2.0426   2.0711   2.3166   2.5917   2.8354   3.3132
     3.3320   3.3755   3.4729   3.5116   3.6398   3.7181   3.8284   4.1409
     4.3396   4.5757   6.0204   6.0842   6.2157   6.6516   6.6759   6.7015
     7.1732   7.4789

          k =-0.5081-0.2579-0.2971 ( 36478 PWs)   bands (ev):

   -44.1484 -44.1484 -22.2831 -22.2831 -22.2212 -22.2212 -22.0678 -22.0678
    -7.0988  -7.0988  -6.6461  -6.6461  -5.8392  -5.8392  -4.8037  -4.8037
    -4.5479  -4.5479   0.6201   0.6201   1.0859   1.0859   1.2019   1.2019
     1.4676   1.4676   2.0558   2.0558   2.7881   2.7881   3.1698   3.1698
     3.3596   3.3596   3.4217   3.4217   3.6917   3.6917   3.8178   3.8178
     4.2433   4.2433   6.2365   6.2365   6.6117   6.6117   6.7516   6.7516
     7.0969   7.0969

          k =-0.2541-0.1934 0.0000 ( 36410 PWs)   bands (ev):

   -44.1493 -44.1493 -22.2878 -22.2878 -22.1972 -22.1972 -22.0708 -22.0707
    -7.5516  -7.0670  -6.9648  -6.7533  -6.4647  -5.3004  -5.0899  -4.8605
    -4.7876  -4.0005   0.5472   0.9073   0.9117   1.2150   1.3387   1.4586
     1.9457   2.0741   2.2187   2.4980   2.5693   3.1034   3.3814   3.5754
     3.6173   3.6967   3.7719   3.8236   3.9259   4.1652   4.2041   4.2216
     4.4031   4.6624   5.7590   6.0065   6.3241   6.5955   6.6073   6.8491
     6.9979   7.0683

          k =-0.2541-0.1934 0.1485 ( 36427 PWs)   bands (ev):

   -44.1493 -44.1493 -22.2878 -22.2878 -22.1972 -22.1972 -22.0708 -22.0707
    -7.5136  -7.2295  -6.8539  -6.7616  -6.3440  -5.6370  -4.9069  -4.8054
    -4.6980  -4.0932   0.5763   0.9262   1.0021   1.0310   1.1732   1.5997
     1.8577   2.3183   2.4588   2.5114   2.5532   2.9133   3.2755   3.3417
     3.5493   3.6476   3.7324   3.8896   3.9712   4.0812   4.1956   4.2358
     4.6780   4.9977   5.7904   5.8536   6.1869   6.3283   6.5479   6.6935
     7.2131   7.2920

          k =-0.2541-0.1934-0.2971 ( 36422 PWs)   bands (ev):

   -44.1493 -44.1493 -22.2878 -22.2878 -22.1972 -22.1972 -22.0707 -22.0707
    -7.4023  -7.4023  -6.7894  -6.7894  -6.0336  -6.0336  -4.8492  -4.8492
    -4.3484  -4.3484   0.7157   0.7157   1.0429   1.0429   1.2809   1.2809
     2.2993   2.2993   2.5404   2.5404   2.6907   2.6907   3.1371   3.1371
     3.5300   3.5300   3.8058   3.8058   4.0322   4.0322   4.2309   4.2309
     5.1605   5.1605   5.7064   5.7064   6.0845   6.0845   6.5489   6.5489
     7.4128   7.4128

          k = 0.0000-0.1290 0.0000 ( 36417 PWs)   bands (ev):

   -44.1497 -44.1497 -22.2897 -22.2897 -22.1872 -22.1872 -22.0720 -22.0719
    -7.6704  -7.1504  -7.0695  -6.7939  -6.5193  -5.3379  -5.0941  -4.8997
    -4.8327  -3.8609   0.4542   0.7421   0.7726   1.0763   1.5232   1.5821
     2.4168   2.4596   2.6519   3.0056   3.0172   3.0187   3.1616   3.4594
     3.5154   3.6324   3.7917   4.0174   4.1327   4.2433   4.2721   4.6310
     5.0736   5.5064   5.6115   5.6580   5.8654   6.0664   6.4110   6.7847
     6.9408   7.2705

          k = 0.0000-0.1290 0.1485 ( 36419 PWs)   bands (ev):

   -44.1497 -44.1497 -22.2897 -22.2897 -22.1872 -22.1872 -22.0720 -22.0720
    -7.6313  -7.3359  -6.9213  -6.8034  -6.4101  -5.6925  -4.9216  -4.8468
    -4.6983  -3.9774   0.4975   0.7801   0.9269   1.0428   1.0790   2.0140
     2.1226   2.4433   2.6060   3.0066   3.0152   3.1204   3.3094   3.3527
     3.6652   3.7238   3.7777   3.9859   4.0814   4.2681   4.2886   4.6449
     4.8929   5.0406   5.7395   5.9321   6.0358   6.0633   6.5898   6.7100
     6.7734   7.2496

          k = 0.0000-0.1290-0.2971 ( 36464 PWs)   bands (ev):

   -44.1497 -44.1497 -22.2897 -22.2897 -22.1872 -22.1872 -22.0720 -22.0720
    -7.5166  -7.5166  -6.8368  -6.8368  -6.1033  -6.1033  -4.8808  -4.8808
    -4.2866  -4.2866   0.6920   0.6920   0.8870   0.8870   1.4377   1.4377
     2.5157   2.5157   2.7000   2.7000   3.0104   3.0104   3.3562   3.3562
     3.8071   3.8071   3.9209   3.9209   4.2370   4.2370   4.4306   4.4306
     4.7122   4.7122   5.9538   5.9538   6.2558   6.2558   6.3823   6.3823
     7.1421   7.1421

          k = 1.0162 0.0000 0.0000 ( 36499 PWs)   bands (ev):

   -44.1471 -44.1471 -22.2760 -22.2760 -22.2551 -22.2551 -22.0635 -22.0635
    -6.6901  -6.6700  -5.8113  -5.8019  -5.7198  -5.7084  -5.4905  -5.4892
    -4.5654  -4.5453   0.0588   0.1054   0.4056   0.4446   1.0038   1.0316
     1.4784   1.6558   2.2373   2.3347   2.3494   2.3713   2.7911   2.8103
     2.8891   2.9021   3.2300   3.2906   3.2997   3.4648   3.6041   3.6421
     3.7734   3.9799   6.3818   6.4300   6.4636   6.5676   6.9754   7.0175
     7.0243   7.0370

          k = 1.0162 0.0000 0.1485 ( 36485 PWs)   bands (ev):

   -44.1471 -44.1471 -22.2760 -22.2760 -22.2551 -22.2551 -22.0635 -22.0635
    -6.6865  -6.6723  -5.8233  -5.8154  -5.7130  -5.7068  -5.4785  -5.4768
    -4.5677  -4.5535  -0.0249  -0.0098   0.6350   0.6432   1.0375   1.0405
     1.4734   1.5759   1.9535   1.9751   2.3608   2.3737   2.6821   2.8191
     2.9769   3.0443   3.0920   3.2144   3.5290   3.6353   3.6774   3.6931
     4.0678   4.1441   5.8609   5.9068   6.3967   6.4801   6.9531   6.9703
     7.2547   7.2584

          k = 1.0162 0.0000-0.2971 ( 36514 PWs)   bands (ev):

   -44.1471 -44.1471 -22.2760 -22.2760 -22.2551 -22.2551 -22.0635 -22.0635
    -6.6787  -6.6787  -5.8306  -5.8306  -5.7069  -5.7069  -5.4658  -5.4658
    -4.5659  -4.5659  -0.0779  -0.0779   0.9100   0.9100   1.0053   1.0053
     1.5632   1.5632   1.5915   1.5915   2.3526   2.3526   2.7548   2.7548
     3.0543   3.0543   3.1105   3.1105   3.6148   3.6148   3.7640   3.7640
     4.5530   4.5530   5.3257   5.3257   6.3651   6.3651   6.9816   6.9816
     7.3162   7.3162

          k = 1.2703 0.0645 0.0000 ( 36468 PWs)   bands (ev):

   -44.1475 -44.1475 -22.2782 -22.2782 -22.2451 -22.2451 -22.0648 -22.0648
    -6.8220  -6.7297  -6.3783  -6.2127  -5.9119  -5.3185  -5.2571  -5.0637
    -4.6318  -4.5760   0.0226   0.2103   0.5897   1.0861   1.1700   1.2061
     1.5037   1.7084   1.9429   2.0131   2.3991   2.4318   2.5220   2.8094
     2.8244   3.1095   3.2923   3.4540   3.5406   3.5536   3.7612   3.8598
     3.8849   4.4414   5.7792   6.1864   6.3472   6.6054   6.7983   6.9657
     7.1468   7.5775

          k = 1.2703 0.0645 0.1485 ( 36490 PWs)   bands (ev):

   -44.1475 -44.1475 -22.2782 -22.2782 -22.2451 -22.2451 -22.0648 -22.0648
    -6.8067  -6.7404  -6.3734  -6.2758  -5.8013  -5.4206  -5.2025  -5.0846
    -4.6183  -4.5802   0.0779   0.3388   0.4937   0.9149   1.1560   1.1705
     1.5826   1.6417   1.7183   2.2646   2.3106   2.6160   2.7009   2.8400
     2.8920   3.1144   3.2002   3.3714   3.4261   3.5770   3.7291   3.8303
     3.8536   4.6933   5.3755   6.3113   6.5104   6.6270   6.7536   6.9796
     7.0355   7.4246

          k = 1.2703 0.0645-0.2971 ( 36480 PWs)   bands (ev):

   -44.1475 -44.1475 -22.2782 -22.2782 -22.2451 -22.2451 -22.0648 -22.0648
    -6.7711  -6.7711  -6.3459  -6.3459  -5.6034  -5.6034  -5.1376  -5.1376
    -4.5950  -4.5950   0.2518   0.2518   0.6848   0.6848   1.0261   1.0261
     1.5845   1.5845   2.0756   2.0756   2.4991   2.4991   2.8252   2.8252
     3.0028   3.0028   3.2178   3.2178   3.5827   3.5827   3.7970   3.7970
     4.1240   4.1240   5.9483   5.9483   6.3737   6.3737   6.9699   6.9699
     7.2381   7.2381

          k =-0.5081-0.3869 0.0000 ( 36463 PWs)   bands (ev):

   -44.1484 -44.1484 -22.2831 -22.2830 -22.2212 -22.2212 -22.0678 -22.0677
    -7.2124  -6.8805  -6.6625  -6.6421  -6.2757  -5.2288  -5.1306  -4.7556
    -4.6774  -4.4217   0.5434   0.6557   0.7087   1.3047   1.4210   1.5972
     1.6536   1.7984   1.9648   2.1930   2.2697   2.3254   2.3413   3.2317
     3.3484   3.3832   3.3929   3.5089   3.6991   3.7837   3.8565   4.0710
     4.5704   5.2679   5.3873   5.7328   6.0637   6.6891   6.7613   6.7988
     7.2387   7.5493

          k =-0.5081-0.3869 0.1485 ( 36477 PWs)   bands (ev):

   -44.1484 -44.1484 -22.2831 -22.2830 -22.2212 -22.2212 -22.0678 -22.0677
    -7.1790  -6.9545  -6.6713  -6.6482  -6.1330  -5.5029  -4.9454  -4.7176
    -4.6843  -4.4483   0.5243   0.7402   0.8279   1.0680   1.3994   1.4338
     1.5929   1.6894   2.0497   2.0761   2.3062   2.6376   2.8547   3.1992
     3.3454   3.3755   3.4148   3.5085   3.6467   3.6984   3.7722   4.1073
     4.2761   4.5751   5.9653   6.0947   6.2107   6.5872   6.7749   6.8204
     7.0941   7.4818

          k =-0.5081-0.3869-0.2971 ( 36492 PWs)   bands (ev):

   -44.1484 -44.1484 -22.2831 -22.2831 -22.2212 -22.2212 -22.0678 -22.0678
    -7.0842  -7.0842  -6.6634  -6.6634  -5.8383  -5.8383  -4.8130  -4.8130
    -4.5421  -4.5421   0.6288   0.6288   1.0839   1.0839   1.1850   1.1850
     1.5684   1.5684   2.0470   2.0470   2.8171   2.8171   3.1941   3.1941
     3.3004   3.3004   3.3857   3.3857   3.6773   3.6773   3.8037   3.8037
     4.1842   4.1842   6.1991   6.1991   6.6422   6.6422   6.7575   6.7575
     7.1097   7.1097

          k =-0.2541-0.3224 0.0000 ( 36485 PWs)   bands (ev):

   -44.1493 -44.1493 -22.2878 -22.2878 -22.1972 -22.1972 -22.0708 -22.0707
    -7.5363  -7.0548  -6.9622  -6.7703  -6.4882  -5.2993  -5.1006  -4.8659
    -4.7786  -4.0020   0.5736   0.9255   1.0334   1.2642   1.4110   1.4559
     1.9812   2.1060   2.2202   2.4182   2.5183   3.2200   3.2610   3.3916
     3.5647   3.6614   3.7366   3.8517   3.9048   4.0839   4.1663   4.1788
     4.3956   4.6057   5.8392   6.0233   6.3674   6.5561   6.6933   6.8717
     6.9363   7.0109

          k =-0.2541-0.3224 0.1485 ( 36445 PWs)   bands (ev):

   -44.1493 -44.1493 -22.2878 -22.2878 -22.1972 -22.1972 -22.0708 -22.0707
    -7.4983  -7.2152  -6.8631  -6.7792  -6.3565  -5.6362  -4.9282  -4.8016
    -4.6893  -4.0929   0.5964   0.9627   1.0393   1.1400   1.2500   1.6245
     1.8668   2.3149   2.4320   2.4734   2.5479   2.8945   3.3070   3.3507
     3.3789   3.5240   3.7331   3.8828   3.9150   4.0685   4.1120   4.1707
     4.6881   4.9642   5.7733   5.8806   6.1782   6.3259   6.6494   6.7240
     7.1609   7.2803

          k =-0.2541-0.3224-0.2971 ( 36442 PWs)   bands (ev):

   -44.1493 -44.1493 -22.2878 -22.2878 -22.1972 -22.1972 -22.0707 -22.0707
    -7.3872  -7.3872  -6.8067  -6.8067  -6.0358  -6.0358  -4.8576  -4.8576
    -4.3443  -4.3443   0.7273   0.7273   1.1723   1.1723   1.2941   1.2941
     2.2955   2.2955   2.4894   2.4894   2.6941   2.6941   3.1890   3.1890
     3.3622   3.3622   3.7932   3.7932   4.0157   4.0157   4.1545   4.1545
     5.1628   5.1628   5.6630   5.6630   6.0585   6.0585   6.6563   6.6563
     7.3793   7.3793

          k = 0.0000-0.2579 0.0000 ( 36445 PWs)   bands (ev):

   -44.1497 -44.1497 -22.2897 -22.2897 -22.1872 -22.1872 -22.0720 -22.0719
    -7.6569  -7.1365  -7.0671  -6.8104  -6.5436  -5.3376  -5.1039  -4.9075
    -4.8220  -3.8624   0.4984   0.7862   0.8571   1.1193   1.5788   1.6068
     2.4246   2.4615   2.6697   3.0016   3.0078   3.0492   3.2623   3.2796
     3.2995   3.6060   3.7079   3.9814   4.1043   4.1326   4.1461   4.6332
     5.0535   5.4430   5.6756   5.6790   5.9010   6.1316   6.5078   6.7068
     6.9421   7.2328

          k = 0.0000-0.2579 0.1485 ( 36452 PWs)   bands (ev):

   -44.1497 -44.1497 -22.2897 -22.2897 -22.1872 -22.1872 -22.0720 -22.0720
    -7.6178  -7.3229  -6.9269  -6.8198  -6.4248  -5.6925  -4.9432  -4.8416
    -4.6903  -3.9774   0.5324   0.8859   0.9730   1.0869   1.1078   2.0357
     2.1577   2.4518   2.6211   3.0015   3.0066   3.1232   3.2085   3.2391
     3.6342   3.6686   3.7014   3.9248   4.0769   4.1454   4.1754   4.6469
     4.8839   5.0229   5.7678   5.9409   6.0665   6.0888   6.5541   6.7746
     6.7756   7.2148

          k = 0.0000-0.2579-0.2971 ( 36454 PWs)   bands (ev):

   -44.1497 -44.1497 -22.2897 -22.2897 -22.1872 -22.1872 -22.0720 -22.0720
    -7.5031  -7.5031  -6.8516  -6.8516  -6.1069  -6.1069  -4.8882  -4.8882
    -4.2833  -4.2833   0.7247   0.7247   0.9760   0.9760   1.4604   1.4604
     2.5267   2.5267   2.7192   2.7192   3.0035   3.0035   3.2149   3.2149
     3.7714   3.7714   3.9068   3.9068   4.0988   4.0988   4.4224   4.4224
     4.7117   4.7117   5.9315   5.9315   6.2968   6.2968   6.3866   6.3866
     7.1307   7.1307

          k = 1.5243 0.0000 0.0000 ( 36439 PWs)   bands (ev):

   -44.1484 -44.1484 -22.2831 -22.2830 -22.2212 -22.2212 -22.0678 -22.0677
    -7.2054  -6.8799  -6.6614  -6.6482  -6.2807  -5.2280  -5.1341  -4.7568
    -4.6751  -4.4221   0.5477   0.6501   0.7028   1.3086   1.5531   1.5611
     1.6282   1.7924   1.9739   2.2145   2.2568   2.3219   2.3581   3.1809
     3.3278   3.3601   3.4066   3.5877   3.6732   3.6880   3.8502   4.0860
     4.5651   5.2599   5.3840   5.6991   6.0912   6.6528   6.8227   6.8424
     7.1919   7.5800

          k = 1.5243 0.0000 0.1485 ( 36476 PWs)   bands (ev):

   -44.1484 -44.1484 -22.2831 -22.2830 -22.2212 -22.2212 -22.0678 -22.0677
    -7.1721  -6.9501  -6.6759  -6.6555  -6.1347  -5.5022  -4.9505  -4.7174
    -4.6830  -4.4475   0.5267   0.7407   0.8221   1.0668   1.4195   1.4790
     1.5829   1.7130   2.0606   2.0760   2.2978   2.6490   2.8667   3.1486
     3.3034   3.3888   3.3996   3.5859   3.6130   3.7031   3.7093   4.1220
     4.2336   4.5749   5.9386   6.1031   6.2095   6.5583   6.8193   6.8843
     7.0453   7.4930

          k = 1.5243 0.0000-0.2971 ( 36508 PWs)   bands (ev):

   -44.1484 -44.1484 -22.2831 -22.2831 -22.2212 -22.2212 -22.0678 -22.0678
    -7.0778  -7.0778  -6.6709  -6.6709  -5.8379  -5.8379  -4.8168  -4.8168
    -4.5397  -4.5397   0.6323   0.6323   1.0828   1.0828   1.1793   1.1793
     1.6163   1.6163   2.0397   2.0397   2.8308   2.8308   3.1566   3.1566
     3.3081   3.3081   3.3890   3.3890   3.6637   3.6637   3.7987   3.7987
     4.1601   4.1601   6.1840   6.1840   6.6369   6.6369   6.7740   6.7740
     7.1201   7.1201

          k =-0.2541-0.4514 0.0000 ( 36444 PWs)   bands (ev):

   -44.1493 -44.1493 -22.2878 -22.2878 -22.1972 -22.1972 -22.0708 -22.0707
    -7.5248  -7.0467  -6.9603  -6.7811  -6.5062  -5.2984  -5.1084  -4.8675
    -4.7742  -4.0031   0.5821   0.9361   1.1464   1.2984   1.4520   1.4997
     2.0198   2.1314   2.2125   2.3272   2.4422   3.1692   3.2628   3.3245
     3.5704   3.6282   3.7445   3.7765   3.9063   4.0416   4.1304   4.1521
     4.4441   4.5350   5.9055   6.0314   6.3880   6.5222   6.7488   6.8638
     6.8889   6.9999

          k =-0.2541-0.4514 0.1485 ( 36461 PWs)   bands (ev):

   -44.1493 -44.1493 -22.2878 -22.2878 -22.1972 -22.1972 -22.0708 -22.0707
    -7.4869  -7.2047  -6.8710  -6.7912  -6.3654  -5.6356  -4.9416  -4.8002
    -4.6837  -4.0928   0.6018   0.9783   1.0508   1.2751   1.3255   1.6460
     1.8836   2.2959   2.3408   2.4511   2.5480   2.8815   3.2478   3.2621
     3.3832   3.5334   3.7622   3.8413   3.8786   3.9914   4.1046   4.1350
     4.7118   4.9309   5.7646   5.9021   6.1870   6.2842   6.7174   6.7451
     7.1325   7.2712

          k =-0.2541-0.4514-0.2971 ( 36490 PWs)   bands (ev):

   -44.1493 -44.1493 -22.2878 -22.2878 -22.1972 -22.1972 -22.0707 -22.0707
    -7.3759  -7.3759  -6.8196  -6.8196  -6.0372  -6.0372  -4.8635  -4.8635
    -4.3414  -4.3414   0.7294   0.7294   1.2843   1.2843   1.3168   1.3168
     2.2792   2.2792   2.4312   2.4312   2.6959   2.6959   3.2102   3.2102
     3.2657   3.2657   3.7924   3.7924   3.9964   3.9964   4.1116   4.1116
     5.1661   5.1661   5.6375   5.6375   6.0339   6.0339   6.7208   6.7208
     7.3581   7.3581

          k = 0.0000-0.3869 0.0000 ( 36477 PWs)   bands (ev):

   -44.1497 -44.1497 -22.2897 -22.2897 -22.1872 -22.1872 -22.0720 -22.0719
    -7.6426  -7.1228  -7.0647  -6.8252  -6.5701  -5.3371  -5.1145  -4.9105
    -4.8154  -3.8640   0.5219   0.8005   1.0148   1.1838   1.6299   1.6444
     2.4326   2.4596   2.6889   2.9977   2.9977   3.0075   3.0445   3.0980
     3.4029   3.5791   3.7234   3.9226   3.9645   4.0104   4.1324   4.6356
     5.0339   5.4076   5.6933   5.7560   5.9392   6.1696   6.5757   6.6051
     6.9433   7.2052

          k = 0.0000-0.3869 0.1485 ( 36452 PWs)   bands (ev):

   -44.1497 -44.1497 -22.2897 -22.2897 -22.1872 -22.1872 -22.0720 -22.0720
    -7.6036  -7.3093  -6.9343  -6.8356  -6.4397  -5.6923  -4.9616  -4.8390
    -4.6831  -3.9774   0.5463   0.9943   1.0127   1.1458   1.2023   2.0606
     2.1888   2.4606   2.6370   2.9301   2.9718   2.9961   2.9976   3.3007
     3.6091   3.6706   3.6788   3.9089   4.0102   4.0583   4.0721   4.6491
     4.8751   5.0152   5.8058   5.9503   6.0870   6.0921   6.5087   6.7777
     6.8150   7.1818

          k = 0.0000-0.3869-0.2971 ( 36454 PWs)   bands (ev):

   -44.1497 -44.1497 -22.2897 -22.2897 -22.1872 -22.1872 -22.0720 -22.0720
    -7.4890  -7.4890  -6.8674  -6.8674  -6.1103  -6.1103  -4.8957  -4.8957
    -4.2801  -4.2801   0.7300   0.7300   1.1216   1.1216   1.4850   1.4850
     2.5381   2.5381   2.6956   2.6956   2.9963   2.9963   3.0407   3.0407
     3.7863   3.7863   3.8926   3.8926   3.9871   3.9871   4.4086   4.4086
     4.7115   4.7115   5.9046   5.9046   6.3233   6.3233   6.3912   6.3912
     7.1051   7.1051

          k =-2.0325 0.0000 0.0000 ( 36452 PWs)   bands (ev):

   -44.1497 -44.1497 -22.2897 -22.2897 -22.1872 -22.1872 -22.0720 -22.0719
    -7.6364  -7.1172  -7.0637  -6.8306  -6.5819  -5.3369  -5.1190  -4.9109
    -4.8134  -3.8647   0.5261   0.8066   1.1259   1.1824   1.6391   1.6857
     2.4359   2.4565   2.6973   2.8626   2.9435   2.9932   2.9961   3.1252
     3.5017   3.5678   3.7450   3.8063   3.9493   3.9545   4.1322   4.6367
     5.0258   5.3975   5.7006   5.7919   5.9575   6.1810   6.5544   6.5976
     6.9437   7.1957

          k =-2.0325 0.0000 0.1485 ( 36456 PWs)   bands (ev):

   -44.1497 -44.1497 -22.2897 -22.2897 -22.1872 -22.1872 -22.0720 -22.0720
    -7.5974  -7.3035  -6.9380  -6.8419  -6.4459  -5.6922  -4.9687  -4.8383
    -4.6803  -3.9774   0.5472   1.0232   1.0321   1.1862   1.2687   2.0714
     2.2016   2.4644   2.6440   2.8094   2.8620   2.9931   2.9945   3.3571
     3.5886   3.6694   3.7022   3.8841   3.9552   4.0127   4.0701   4.6501
     4.8714   5.0139   5.8260   5.9544   6.0775   6.1022   6.4878   6.7786
     6.8258   7.1696

          k =-2.0325 0.0000-0.2971 ( 36460 PWs)   bands (ev):

   -44.1497 -44.1497 -22.2897 -22.2897 -22.1872 -22.1872 -22.0720 -22.0720
    -7.4829  -7.4829  -6.8741  -6.8741  -6.1116  -6.1116  -4.8988  -4.8988
    -4.2787  -4.2787   0.7286   0.7286   1.1990   1.1990   1.4965   1.4965
     2.5430   2.5430   2.6446   2.6446   2.9925   2.9925   2.9932   2.9932
     3.7968   3.7968   3.8866   3.8866   3.9450   3.9450   4.4033   4.4033
     4.7115   4.7115   5.8918   5.8918   6.3314   6.3314   6.3932   6.3932
     7.0927   7.0927

     the Fermi energy is     5.3243 ev

!    total energy              =   -4240.94312331 Ry

     total all-electron energy =   -150287.636818 Ry
     estimated scf accuracy    <          4.7E-12 Ry
     smearing contrib. (-TS)   =      -0.00000083 Ry
     internal energy E=F+TS    =   -4240.94312248 Ry

     The total energy is F=E-TS. E is the sum of the following terms:
     one-electron contribution =    -165.38476149 Ry
     hartree contribution      =     116.16769771 Ry
     xc contribution           =    -201.43266987 Ry
     ewald contribution        =    -222.78245875 Ry
     one-center paw contrib.   =   -3767.51093008 Ry

     convergence has been achieved in  17 iterations

     Forces acting on atoms (cartesian axes, Ry/au):

     atom    1 type  1   force =    -0.00000000   -0.01568618    0.00000000
     atom    2 type  1   force =     0.00000000    0.01568618    0.00000000
     atom    3 type  2   force =     0.00000000    0.00046835    0.00000000
     atom    4 type  2   force =     0.00000000   -0.00046835    0.00000000
     atom    5 type  2   force =     0.00000000    0.00334235    0.00041933
     atom    6 type  2   force =     0.00000000   -0.00334235   -0.00041933
     atom    7 type  2   force =     0.00000000    0.00334235   -0.00041933
     atom    8 type  2   force =     0.00000000   -0.00334235    0.00041933
     atom    9 type  2   force =     0.00000000    0.01780902    0.01627976
     atom   10 type  2   force =     0.00000000   -0.01780902   -0.01627976
     atom   11 type  2   force =     0.00000000    0.01780902   -0.01627976
     atom   12 type  2   force =     0.00000000   -0.01780902    0.01627976

     Total force =     0.053542     Total SCF correction =     0.000003


     Computing stress (Cartesian axis) and pressure

          total   stress  (Ry/bohr**3)                   (kbar)     P=       -3.97
  -0.00001858  -0.00000000   0.00000000           -2.73       -0.00        0.00
   0.00000000  -0.00002667   0.00000000            0.00       -3.92        0.00
   0.00000000   0.00000000  -0.00003570            0.00        0.00       -5.25

 
     init_run     :     18.54s CPU     19.03s WALL (       1 calls)
     electrons    :    960.57s CPU    971.45s WALL (       1 calls)
     forces       :      6.55s CPU      6.77s WALL (       1 calls)
     stress       :     42.25s CPU     42.86s WALL (       1 calls)

     Called by init_run:
     wfcinit      :     14.19s CPU     14.38s WALL (       1 calls)
     potinit      :      1.40s CPU      1.43s WALL (       1 calls)
     hinit0       :      1.68s CPU      1.73s WALL (       1 calls)

     Called by electrons:
     c_bands      :    813.99s CPU    817.61s WALL (      18 calls)
     sum_band     :    122.06s CPU    125.98s WALL (      18 calls)
     v_of_rho     :      5.45s CPU      5.70s WALL (      18 calls)
     newd         :     13.55s CPU     16.78s WALL (      18 calls)
     PAW_pot      :      5.63s CPU      5.64s WALL (      18 calls)
     mix_rho      :      0.78s CPU      0.80s WALL (      18 calls)

     Called by c_bands:
     init_us_2    :     10.93s CPU     11.00s WALL (    2457 calls)
     cegterg      :    740.35s CPU    743.43s WALL (    1134 calls)

     Called by *egterg:
     cdiaghg      :     29.47s CPU     29.55s WALL (    8651 calls)
     h_psi        :    559.83s CPU    562.67s WALL (    8777 calls)
     s_psi        :     47.37s CPU     47.45s WALL (    8777 calls)
     g_psi        :      2.12s CPU      2.14s WALL (    7580 calls)

     Called by h_psi:
     h_psi:calbec :     41.05s CPU     41.16s WALL (    8777 calls)
     vloc_psi     :    468.53s CPU    471.07s WALL (    8777 calls)
     add_vuspsi   :     47.07s CPU     47.16s WALL (    8777 calls)

     General routines
     calbec       :     53.19s CPU     53.33s WALL (   10226 calls)
     fft          :      3.30s CPU      3.43s WALL (     258 calls)
     ffts         :      0.08s CPU      0.08s WALL (      36 calls)
     fftw         :    427.75s CPU    430.06s WALL (  443934 calls)
     interpolate  :      0.29s CPU      0.29s WALL (      18 calls)
 
     Parallel routines
 
     PWSCF        :  17m 8.16s CPU  17m20.43s WALL

 
   This run was terminated on:  15:35:39  19Nov2021            

=------------------------------------------------------------------------------=
   JOB DONE.
=------------------------------------------------------------------------------=
