
     Program PWSCF v.6.8 starts on 19Nov2021 at 15:17:38 

     This program is part of the open-source Quantum ESPRESSO suite
     for quantum simulation of materials; please cite
         "P. Giannozzi et al., J. Phys.:Condens. Matter 21 395502 (2009);
         "P. Giannozzi et al., J. Phys.:Condens. Matter 29 465901 (2017);
         "P. Giannozzi et al., J. Chem. Phys. 152 154105 (2020);
          URL http://www.quantum-espresso.org", 
     in publications or presentations arising from this work. More details at
     http://www.quantum-espresso.org/quote

     Parallel version (MPI), running on    10 processors

     MPI processes distributed on     1 nodes
     R & G space division:  proc/nbgrp/npool/nimage =      10
     67537 MiB available memory on the printing compute node when the environment starts
 
     Waiting for input...
     Reading input from standard input

     Current dimensions of program PWSCF are:
     Max number of different atomic species (ntypx) = 10
     Max number of k-points (npk) =  40000
     Max angular momentum in pseudopotentials (lmaxx) =  4
     file Zr.pbe-spn-kjpaw_psl.1.0.0.UPF: wavefunction(s)  4S 4P renormalized
     file Te.pbe-n-kjpaw_psl.1.0.0.UPF: wavefunction(s)  5S 5P renormalized
     Message from routine setup:
     using ibrav=0 with symmetry is DISCOURAGED, use correct ibrav instead

     Subspace diagonalization in iterative solution of the eigenvalue problem:
     a serial algorithm will be used

 
     Parallelization info
     --------------------
     sticks:   dense  smooth     PW     G-vecs:    dense   smooth      PW
     Min         734     293     87               115340    29174    4753
     Max         735     295     88               115345    29176    4760
     Sum        7345    2937    873              1153415   291749   47557
 
     Using Slab Decomposition
 


     bravais-lattice index     =            0
     lattice parameter (alat)  =      15.5510  a.u.
     unit-cell volume          =    3018.5011 (a.u.)^3
     number of atoms/cell      =           12
     number of atomic types    =            2
     number of electrons       =        84.00
     number of Kohn-Sham states=           50
     kinetic-energy cutoff     =      80.0000  Ry
     charge density cutoff     =     800.0000  Ry
     scf convergence threshold =      1.0E-10
     mixing beta               =       0.7000
     number of iterations used =            8  plain     mixing
     Exchange-correlation= SLA  PW   PBX  PBC
                           (   1   4   3   4   0   0   0)

     celldm(1)=  15.551040  celldm(2)=   0.000000  celldm(3)=   0.000000
     celldm(4)=   0.000000  celldm(5)=   0.000000  celldm(6)=   0.000000

     crystal axes: (cart. coord. in units of alat)
               a(1) = (   0.246007  -0.969268   0.000000 )  
               a(2) = (   0.246007   0.969268   0.000000 )  
               a(3) = (   0.000000   0.000000   1.683031 )  

     reciprocal axes: (cart. coord. in units 2 pi/alat)
               b(1) = (  2.032465 -0.515853  0.000000 )  
               b(2) = (  2.032465  0.515853  0.000000 )  
               b(3) = (  0.000000  0.000000  0.594166 )  


     PseudoPot. # 1 for Zr read from file:
     pseudo/Zr.pbe-spn-kjpaw_psl.1.0.0.UPF
     MD5 check sum: 02112c41713a0468aff2bb39ef194e36
     Pseudo is Projector augmented-wave + core cor, Zval = 12.0
     Generated using &quot;atomic&quot; code by A. Dal Corso  v.6.2.2
     Shape of augmentation charge: PSQ
     Using radial grid of 1225 points,  6 beta functions with: 
                l(1) =   0
                l(2) =   0
                l(3) =   1
                l(4) =   1
                l(5) =   2
                l(6) =   2
     Q(r) pseudized with 0 coefficients 


     PseudoPot. # 2 for Te read from file:
     pseudo/Te.pbe-n-kjpaw_psl.1.0.0.UPF
     MD5 check sum: 66247bff2bd9dbf220fbb0bf5ab56e9d
     Pseudo is Projector augmented-wave + core cor, Zval =  6.0
     Generated using &quot;atomic&quot; code by A. Dal Corso  v.6.3
     Shape of augmentation charge: PSQ
     Using radial grid of 1245 points,  6 beta functions with: 
                l(1) =   0
                l(2) =   0
                l(3) =   1
                l(4) =   1
                l(5) =   2
                l(6) =   2
     Q(r) pseudized with 0 coefficients 


     atomic species   valence    mass     pseudopotential
        Zr            12.00    91.22000     Zr( 1.00)
        Te             6.00   127.60000     Te( 1.00)

      8 Sym. Ops., with inversion, found ( 4 have fractional translation)



   Cartesian axes

     site n.     atom                  positions (alat units)
         1           Zr  tau(   1) = (   0.0000000   0.6081925   0.4207578  )
         2           Zr  tau(   2) = (   0.2460067   0.3610756   1.2622733  )
         3           Te  tau(   3) = (   0.2460067   0.3343003   0.4207578  )
         4           Te  tau(   4) = (   0.0000000   0.6349678   1.2622733  )
         5           Te  tau(   5) = (   0.2460067   0.8086490   0.2512601  )
         6           Te  tau(   6) = (   0.0000000   0.1606191   1.4317709  )
         7           Te  tau(   7) = (   0.2460067   0.8086490   0.5902554  )
         8           Te  tau(   8) = (   0.0000000   0.1606191   1.0927757  )
         9           Te  tau(   9) = (   0.0000000   0.4103633   0.7265618  )
        10           Te  tau(  10) = (   0.2460067   0.5589049   0.9564693  )
        11           Te  tau(  11) = (   0.0000000   0.4103633   0.1149537  )
        12           Te  tau(  12) = (   0.2460067   0.5589049   1.5680773  )

     number of k points=    63  Methfessel-Paxton smearing, width (Ry)=  0.0030
                       cart. coord. in units 2pi/alat
        k(    1) = (   0.0000000   0.0000000   0.0000000), wk =   0.0078125
        k(    2) = (   0.0000000   0.0000000   0.1485415), wk =   0.0156250
        k(    3) = (   0.0000000   0.0000000  -0.2970830), wk =   0.0078125
        k(    4) = (   0.2540581   0.0644816   0.0000000), wk =   0.0312500
        k(    5) = (   0.2540581   0.0644816   0.1485415), wk =   0.0625000
        k(    6) = (   0.2540581   0.0644816  -0.2970830), wk =   0.0312500
        k(    7) = (   0.5081162   0.1289633   0.0000000), wk =   0.0312500
        k(    8) = (   0.5081162   0.1289633   0.1485415), wk =   0.0625000
        k(    9) = (   0.5081162   0.1289633  -0.2970830), wk =   0.0312500
        k(   10) = (   0.7621743   0.1934449   0.0000000), wk =   0.0312500
        k(   11) = (   0.7621743   0.1934449   0.1485415), wk =   0.0625000
        k(   12) = (   0.7621743   0.1934449  -0.2970830), wk =   0.0312500
        k(   13) = (  -1.0162324  -0.2579266   0.0000000), wk =   0.0156250
        k(   14) = (  -1.0162324  -0.2579266   0.1485415), wk =   0.0312500
        k(   15) = (  -1.0162324  -0.2579266  -0.2970830), wk =   0.0156250
        k(   16) = (   0.5081162   0.0000000   0.0000000), wk =   0.0156250
        k(   17) = (   0.5081162   0.0000000   0.1485415), wk =   0.0312500
        k(   18) = (   0.5081162   0.0000000  -0.2970830), wk =   0.0156250
        k(   19) = (   0.7621743   0.0644816   0.0000000), wk =   0.0312500
        k(   20) = (   0.7621743   0.0644816   0.1485415), wk =   0.0625000
        k(   21) = (   0.7621743   0.0644816  -0.2970830), wk =   0.0312500
        k(   22) = (   1.0162324   0.1289633   0.0000000), wk =   0.0312500
        k(   23) = (   1.0162324   0.1289633   0.1485415), wk =   0.0625000
        k(   24) = (   1.0162324   0.1289633  -0.2970830), wk =   0.0312500
        k(   25) = (  -0.7621743  -0.3224082   0.0000000), wk =   0.0312500
        k(   26) = (  -0.7621743  -0.3224082   0.1485415), wk =   0.0625000
        k(   27) = (  -0.7621743  -0.3224082  -0.2970830), wk =   0.0312500
        k(   28) = (  -0.5081162  -0.2579266   0.0000000), wk =   0.0312500
        k(   29) = (  -0.5081162  -0.2579266   0.1485415), wk =   0.0625000
        k(   30) = (  -0.5081162  -0.2579266  -0.2970830), wk =   0.0312500
        k(   31) = (  -0.2540581  -0.1934449   0.0000000), wk =   0.0312500
        k(   32) = (  -0.2540581  -0.1934449   0.1485415), wk =   0.0625000
        k(   33) = (  -0.2540581  -0.1934449  -0.2970830), wk =   0.0312500
        k(   34) = (   0.0000000  -0.1289633   0.0000000), wk =   0.0156250
        k(   35) = (   0.0000000  -0.1289633   0.1485415), wk =   0.0312500
        k(   36) = (   0.0000000  -0.1289633  -0.2970830), wk =   0.0156250
        k(   37) = (   1.0162324   0.0000000   0.0000000), wk =   0.0156250
        k(   38) = (   1.0162324   0.0000000   0.1485415), wk =   0.0312500
        k(   39) = (   1.0162324   0.0000000  -0.2970830), wk =   0.0156250
        k(   40) = (   1.2702905   0.0644816   0.0000000), wk =   0.0312500
        k(   41) = (   1.2702905   0.0644816   0.1485415), wk =   0.0625000
        k(   42) = (   1.2702905   0.0644816  -0.2970830), wk =   0.0312500
        k(   43) = (  -0.5081162  -0.3868899   0.0000000), wk =   0.0312500
        k(   44) = (  -0.5081162  -0.3868899   0.1485415), wk =   0.0625000
        k(   45) = (  -0.5081162  -0.3868899  -0.2970830), wk =   0.0312500
        k(   46) = (  -0.2540581  -0.3224082   0.0000000), wk =   0.0312500
        k(   47) = (  -0.2540581  -0.3224082   0.1485415), wk =   0.0625000
        k(   48) = (  -0.2540581  -0.3224082  -0.2970830), wk =   0.0312500
        k(   49) = (   0.0000000  -0.2579266   0.0000000), wk =   0.0156250
        k(   50) = (   0.0000000  -0.2579266   0.1485415), wk =   0.0312500
        k(   51) = (   0.0000000  -0.2579266  -0.2970830), wk =   0.0156250
        k(   52) = (   1.5243485   0.0000000   0.0000000), wk =   0.0156250
        k(   53) = (   1.5243485   0.0000000   0.1485415), wk =   0.0312500
        k(   54) = (   1.5243485   0.0000000  -0.2970830), wk =   0.0156250
        k(   55) = (  -0.2540581  -0.4513715   0.0000000), wk =   0.0312500
        k(   56) = (  -0.2540581  -0.4513715   0.1485415), wk =   0.0625000
        k(   57) = (  -0.2540581  -0.4513715  -0.2970830), wk =   0.0312500
        k(   58) = (   0.0000000  -0.3868899   0.0000000), wk =   0.0156250
        k(   59) = (   0.0000000  -0.3868899   0.1485415), wk =   0.0312500
        k(   60) = (   0.0000000  -0.3868899  -0.2970830), wk =   0.0156250
        k(   61) = (  -2.0324647   0.0000000   0.0000000), wk =   0.0078125
        k(   62) = (  -2.0324647   0.0000000   0.1485415), wk =   0.0156250
        k(   63) = (  -2.0324647   0.0000000  -0.2970830), wk =   0.0078125

     Dense  grid:  1153415 G-vectors     FFT dimensions: ( 144, 144, 240)

     Smooth grid:   291749 G-vectors     FFT dimensions: (  90,  90, 150)

     Estimated max dynamical RAM per process >     657.19 MB

     Estimated total dynamical RAM >       6.42 GB

     Initial potential from superposition of free atoms

     starting charge   83.99353, renormalised to   84.00000
     Starting wfcs are   66 randomized atomic wfcs
     Checking if some PAW data can be deallocated... 

     total cpu time spent up to now is       19.8 secs

     Self-consistent Calculation

     iteration #  1     ecut=    80.00 Ry     beta= 0.70
     Davidson diagonalization with overlap
     ethr =  1.00E-02,  avg # of iterations =  2.0

     Threshold (ethr) on eigenvalues was too large:
     Diagonalizing with lowered threshold

     Davidson diagonalization with overlap
     ethr =  3.97E-04,  avg # of iterations =  4.0

     total cpu time spent up to now is      101.6 secs

     total energy              =   -4240.72898176 Ry
     estimated scf accuracy    <       0.43009798 Ry

     iteration #  2     ecut=    80.00 Ry     beta= 0.70
     Davidson diagonalization with overlap
     ethr =  5.12E-04,  avg # of iterations =  7.6

     total cpu time spent up to now is      161.8 secs

     total energy              =   -4240.63311185 Ry
     estimated scf accuracy    <       2.11948744 Ry

     iteration #  3     ecut=    80.00 Ry     beta= 0.70
     Davidson diagonalization with overlap
     ethr =  5.12E-04,  avg # of iterations =  5.2

     total cpu time spent up to now is      212.2 secs

     total energy              =   -4240.93164408 Ry
     estimated scf accuracy    <       0.01366523 Ry

     iteration #  4     ecut=    80.00 Ry     beta= 0.70
     Davidson diagonalization with overlap
     c_bands:  1 eigenvalues not converged
     c_bands:  1 eigenvalues not converged
     c_bands:  2 eigenvalues not converged
     c_bands:  2 eigenvalues not converged
     c_bands:  2 eigenvalues not converged
     c_bands:  2 eigenvalues not converged
     c_bands:  2 eigenvalues not converged
     c_bands:  1 eigenvalues not converged
     c_bands:  1 eigenvalues not converged
     c_bands:  1 eigenvalues not converged
     c_bands:  1 eigenvalues not converged
     c_bands:  1 eigenvalues not converged
     c_bands:  1 eigenvalues not converged
     c_bands:  1 eigenvalues not converged
     ethr =  1.63E-05,  avg # of iterations = 17.5

     total cpu time spent up to now is      308.5 secs

     total energy              =   -4240.94580376 Ry
     estimated scf accuracy    <       0.08155042 Ry

     iteration #  5     ecut=    80.00 Ry     beta= 0.70
     Davidson diagonalization with overlap
     ethr =  1.63E-05,  avg # of iterations =  6.8
     Minimization algorithm failed to find Fermi energy: reverting to bisection
     Possible cause: smearing is larger than the electronic band-gap.

     total cpu time spent up to now is      357.8 secs

     total energy              =   -4240.94801684 Ry
     estimated scf accuracy    <       0.01621166 Ry

     iteration #  6     ecut=    80.00 Ry     beta= 0.70
     Davidson diagonalization with overlap
     ethr =  1.63E-05,  avg # of iterations =  3.2

     total cpu time spent up to now is      397.6 secs

     total energy              =   -4240.94932457 Ry
     estimated scf accuracy    <       0.00164891 Ry

     iteration #  7     ecut=    80.00 Ry     beta= 0.70
     Davidson diagonalization with overlap
     c_bands:  1 eigenvalues not converged
     c_bands:  1 eigenvalues not converged
     c_bands:  1 eigenvalues not converged
     c_bands:  1 eigenvalues not converged
     c_bands:  1 eigenvalues not converged
     ethr =  1.96E-06,  avg # of iterations = 14.3

     total cpu time spent up to now is      471.5 secs

     total energy              =   -4240.95028726 Ry
     estimated scf accuracy    <       0.00224191 Ry

     iteration #  8     ecut=    80.00 Ry     beta= 0.70
     Davidson diagonalization with overlap
     ethr =  1.96E-06,  avg # of iterations =  2.6

     total cpu time spent up to now is      509.2 secs

     total energy              =   -4240.95031949 Ry
     estimated scf accuracy    <       0.00039620 Ry

     iteration #  9     ecut=    80.00 Ry     beta= 0.70
     Davidson diagonalization with overlap
     ethr =  4.72E-07,  avg # of iterations =  6.5

     total cpu time spent up to now is      556.4 secs

     total energy              =   -4240.95042222 Ry
     estimated scf accuracy    <       0.00000750 Ry

     iteration # 10     ecut=    80.00 Ry     beta= 0.70
     Davidson diagonalization with overlap
     c_bands:  1 eigenvalues not converged
     ethr =  8.93E-09,  avg # of iterations = 10.0

     total cpu time spent up to now is      622.4 secs

     total energy              =   -4240.95043248 Ry
     estimated scf accuracy    <       0.00001660 Ry

     iteration # 11     ecut=    80.00 Ry     beta= 0.70
     Davidson diagonalization with overlap
     ethr =  8.93E-09,  avg # of iterations =  4.2

     total cpu time spent up to now is      666.2 secs

     total energy              =   -4240.95043503 Ry
     estimated scf accuracy    <       0.00000008 Ry

     iteration # 12     ecut=    80.00 Ry     beta= 0.70
     Davidson diagonalization with overlap
     ethr =  9.79E-11,  avg # of iterations = 10.1

     total cpu time spent up to now is      739.7 secs

     total energy              =   -4240.95043522 Ry
     estimated scf accuracy    <       0.00000017 Ry

     iteration # 13     ecut=    80.00 Ry     beta= 0.70
     Davidson diagonalization with overlap
     ethr =  9.79E-11,  avg # of iterations =  2.6

     total cpu time spent up to now is      778.8 secs

     total energy              =   -4240.95043523 Ry
     estimated scf accuracy    <       0.00000001 Ry

     iteration # 14     ecut=    80.00 Ry     beta= 0.70
     Davidson diagonalization with overlap
     ethr =  1.62E-11,  avg # of iterations =  8.3

     total cpu time spent up to now is      837.4 secs

     total energy              =   -4240.95043523 Ry
     estimated scf accuracy    <       0.00000001 Ry

     iteration # 15     ecut=    80.00 Ry     beta= 0.70
     Davidson diagonalization with overlap
     ethr =  1.62E-11,  avg # of iterations =  1.6

     total cpu time spent up to now is      872.4 secs

     total energy              =   -4240.95043523 Ry
     estimated scf accuracy    <          5.3E-09 Ry

     iteration # 16     ecut=    80.00 Ry     beta= 0.70
     Davidson diagonalization with overlap
     ethr =  6.34E-12,  avg # of iterations =  4.4

     total cpu time spent up to now is      912.5 secs

     total energy              =   -4240.95043523 Ry
     estimated scf accuracy    <          4.1E-10 Ry

     iteration # 17     ecut=    80.00 Ry     beta= 0.70
     Davidson diagonalization with overlap
     ethr =  4.92E-13,  avg # of iterations =  8.2

     total cpu time spent up to now is      970.4 secs

     total energy              =   -4240.95043523 Ry
     estimated scf accuracy    <          2.7E-10 Ry

     iteration # 18     ecut=    80.00 Ry     beta= 0.70
     Davidson diagonalization with overlap
     ethr =  3.27E-13,  avg # of iterations =  1.2

     total cpu time spent up to now is     1004.4 secs

     total energy              =   -4240.95043523 Ry
     estimated scf accuracy    <          1.4E-10 Ry

     iteration # 19     ecut=    80.00 Ry     beta= 0.70
     Davidson diagonalization with overlap
     ethr =  1.65E-13,  avg # of iterations =  2.2

     total cpu time spent up to now is     1041.1 secs

     End of self-consistent calculation

          k = 0.0000 0.0000 0.0000 ( 36359 PWs)   bands (ev):

   -44.1409 -44.1409 -22.2746 -22.2745 -22.1770 -22.1770 -22.0664 -22.0663
    -7.7429  -7.2551  -7.1412  -6.8177  -6.4191  -5.3819  -5.0209  -4.8691
    -4.8163  -3.8518   0.3922   0.7324   0.7534   1.0930   1.5148   1.5216
     2.3743   2.3988   2.6901   2.8202   2.9823   3.0139   3.1814   3.4672
     3.6307   3.7136   3.9121   4.0565   4.1856   4.3205   4.3296   4.6476
     4.9647   5.5332   5.6155   5.7311   5.8388   5.9855   6.2740   6.8304
     6.9566   7.2767

          k = 0.0000 0.0000 0.1485 ( 36415 PWs)   bands (ev):

   -44.1409 -44.1409 -22.2746 -22.2745 -22.1770 -22.1770 -22.0664 -22.0663
    -7.7049  -7.4210  -6.9941  -6.8316  -6.3300  -5.6877  -4.8780  -4.8262
    -4.6840  -3.9689   0.4480   0.7694   0.9061   1.0343   1.0602   1.9609
     2.0876   2.4030   2.6024   2.8815   2.9728   3.1200   3.3727   3.3829
     3.6785   3.7889   3.8991   4.0535   4.1304   4.3399   4.3455   4.6557
     4.8352   5.0293   5.7673   5.9646   5.9859   6.0002   6.6092   6.6214
     6.7836   7.2329

          k = 0.0000 0.0000-0.2971 ( 36410 PWs)   bands (ev):

   -44.1409 -44.1409 -22.2746 -22.2746 -22.1770 -22.1770 -22.0664 -22.0664
    -7.5939  -7.5939  -6.8810  -6.8810  -6.0655  -6.0655  -4.8502  -4.8502
    -4.2776  -4.2776   0.6506   0.6506   0.8939   0.8939   1.3919   1.3919
     2.4846   2.4846   2.6703   2.6703   2.9416   2.9416   3.4400   3.4400
     3.8649   3.8649   3.9681   3.9681   4.3373   4.3373   4.4021   4.4021
     4.7010   4.7010   5.9548   5.9548   6.2228   6.2228   6.3930   6.3930
     7.0789   7.0789

          k = 0.2541 0.0645 0.0000 ( 36396 PWs)   bands (ev):

   -44.1406 -44.1406 -22.2726 -22.2726 -22.1868 -22.1868 -22.0652 -22.0651
    -7.6275  -7.1472  -7.0658  -6.7708  -6.3574  -5.3405  -5.0235  -4.8271
    -4.7735  -3.9962   0.4790   0.8642   0.8851   1.2114   1.3541   1.3841
     1.8931   1.9364   2.1572   2.5483   2.5823   3.0930   3.3837   3.6993
     3.7203   3.7555   3.7757   3.7932   4.0110   4.2332   4.2510   4.2554
     4.4781   4.6315   5.7582   5.9810   6.2477   6.5593   6.6168   6.8145
     7.0056   7.1547

          k = 0.2541 0.0645 0.1485 ( 36423 PWs)   bands (ev):

   -44.1406 -44.1406 -22.2726 -22.2726 -22.1868 -22.1868 -22.0652 -22.0651
    -7.5904  -7.3141  -6.9250  -6.7832  -6.2639  -5.6331  -4.8554  -4.7854
    -4.6924  -4.0899   0.5223   0.9031   0.9641   0.9775   1.1631   1.5268
     1.8221   2.2576   2.3495   2.5333   2.5594   2.9366   3.2986   3.3209
     3.6042   3.7253   3.8971   3.9134   4.0149   4.1218   4.2746   4.3110
     4.6838   4.9421   5.8219   5.8771   6.1935   6.2688   6.4500   6.7079
     7.2405   7.3080

          k = 0.2541 0.0645-0.2971 ( 36436 PWs)   bands (ev):

   -44.1406 -44.1406 -22.2726 -22.2726 -22.1868 -22.1868 -22.0652 -22.0652
    -7.4821  -7.4821  -6.8264  -6.8264  -5.9988  -5.9988  -4.8147  -4.8147
    -4.3461  -4.3461   0.6820   0.6820   1.0031   1.0031   1.2260   1.2260
     2.2663   2.2663   2.4912   2.4912   2.6768   2.6768   3.1436   3.1436
     3.6120   3.6120   3.9034   3.9034   4.0737   4.0737   4.3126   4.3126
     5.1004   5.1004   5.7618   5.7618   6.1173   6.1173   6.4496   6.4496
     7.4290   7.4290

          k = 0.5081 0.1290 0.0000 ( 36499 PWs)   bands (ev):

   -44.1397 -44.1396 -22.2679 -22.2679 -22.2105 -22.2105 -22.0623 -22.0622
    -7.3010  -6.8885  -6.8350  -6.6433  -6.1627  -5.2543  -5.0889  -4.7173
    -4.6677  -4.4303   0.5676   0.5690   0.6805   1.2142   1.2438   1.4983
     1.6802   1.7390   2.0511   2.0742   2.1663   2.2610   2.3623   3.3271
     3.4091   3.4755   3.4941   3.5889   3.7693   3.8921   3.9066   4.1640
     4.5041   5.1781   5.4834   5.9910   6.0006   6.5678   6.5821   6.8996
     7.4244   7.5658

          k = 0.5081 0.1290 0.1485 ( 36476 PWs)   bands (ev):

   -44.1397 -44.1397 -22.2679 -22.2679 -22.2105 -22.2105 -22.0623 -22.0622
    -7.2674  -7.0248  -6.7406  -6.6521  -6.0636  -5.5018  -4.9062  -4.6962
    -4.6722  -4.4615   0.4954   0.6914   0.7944   1.0478   1.2474   1.4135
     1.4780   1.5929   2.0263   2.0884   2.3284   2.4952   2.7998   3.3504
     3.4075   3.4256   3.5057   3.5816   3.6776   3.7500   3.8464   4.2221
     4.3486   4.5414   6.0866   6.1423   6.2613   6.5712   6.6243   6.7672
     7.2630   7.4965

          k = 0.5081 0.1290-0.2971 ( 36466 PWs)   bands (ev):

   -44.1397 -44.1397 -22.2679 -22.2679 -22.2105 -22.2105 -22.0623 -22.0623
    -7.1704  -7.1704  -6.6805  -6.6805  -5.8145  -5.8145  -4.7699  -4.7699
    -4.5566  -4.5566   0.5812   0.5812   1.0629   1.0629   1.1701   1.1701
     1.3931   1.3931   2.0578   2.0578   2.7359   2.7359   3.1402   3.1402
     3.3815   3.3815   3.5512   3.5512   3.7014   3.7014   3.8235   3.8235
     4.3052   4.3052   6.3264   6.3264   6.5477   6.5477   6.8037   6.8037
     7.1118   7.1118

          k = 0.7622 0.1934 0.0000 ( 36521 PWs)   bands (ev):

   -44.1387 -44.1387 -22.2631 -22.2631 -22.2342 -22.2342 -22.0594 -22.0593
    -6.8801  -6.7290  -6.4088  -6.3595  -5.8431  -5.3415  -5.2426  -5.0832
    -4.5943  -4.5588   0.0126   0.1496   0.5951   1.0703   1.0964   1.2529
     1.4781   1.5996   1.9393   2.0157   2.2618   2.4079   2.4251   2.7728
     2.8367   3.2623   3.3221   3.4074   3.6276   3.6899   3.7290   3.7853
     3.9029   4.5635   5.8268   6.2512   6.3192   6.7804   6.7902   6.8902
     7.2591   7.5950

          k = 0.7622 0.1934 0.1485 ( 36503 PWs)   bands (ev):

   -44.1387 -44.1387 -22.2631 -22.2631 -22.2342 -22.2342 -22.0594 -22.0594
    -6.8597  -6.7522  -6.4092  -6.3799  -5.7656  -5.4304  -5.1999  -5.1005
    -4.5848  -4.5605   0.0591   0.2808   0.4663   0.9393   1.0743   1.2173
     1.4926   1.6421   1.8192   2.0716   2.1353   2.6321   2.6923   2.8131
     2.8761   3.1136   3.2717   3.3893   3.5159   3.6197   3.6561   3.9212
     3.9786   4.6076   5.5454   6.3004   6.6041   6.6756   6.8382   6.9438
     7.0353   7.5305

          k = 0.7622 0.1934-0.2971 ( 36522 PWs)   bands (ev):

   -44.1387 -44.1387 -22.2631 -22.2631 -22.2342 -22.2342 -22.0594 -22.0594
    -6.8076  -6.8076  -6.4033  -6.4033  -5.5980  -5.5980  -5.1445  -5.1445
    -4.5689  -4.5689   0.2223   0.2223   0.6177   0.6177   1.0781   1.0781
     1.5710   1.5710   2.0051   2.0051   2.3680   2.3680   2.8052   2.8052
     2.9944   2.9944   3.3543   3.3543   3.5863   3.5863   3.8404   3.8404
     4.1322   4.1322   6.0638   6.0638   6.4115   6.4115   6.9189   6.9189
     7.3713   7.3713

          k =-1.0162-0.2579 0.0000 ( 36506 PWs)   bands (ev):

   -44.1384 -44.1384 -22.2609 -22.2609 -22.2441 -22.2441 -22.0582 -22.0582
    -6.7006  -6.6806  -5.8869  -5.8758  -5.8152  -5.8059  -5.4165  -5.4158
    -4.5372  -4.5145   0.0321   0.0564   0.3671   0.3879   1.0117   1.0209
     1.4671   1.6716   2.2342   2.3783   2.3845   2.3871   2.7898   2.8098
     2.8158   2.8774   3.2368   3.2625   3.3103   3.4482   3.5494   3.6997
     3.7631   4.0136   6.4612   6.4865   6.5182   6.5996   6.9826   7.0685
     7.0782   7.0874

          k =-1.0162-0.2579 0.1485 ( 36506 PWs)   bands (ev):

   -44.1384 -44.1384 -22.2609 -22.2609 -22.2441 -22.2441 -22.0582 -22.0582
    -6.6969  -6.6827  -5.9039  -5.8954  -5.7980  -5.7922  -5.4108  -5.4105
    -4.5381  -4.5221  -0.0627  -0.0550   0.5914   0.5978   1.0164   1.0378
     1.4642   1.5906   1.9532   2.0415   2.3763   2.3925   2.7245   2.7249
     2.9441   3.0052   3.1337   3.2006   3.5531   3.5695   3.6908   3.7476
     4.0493   4.1173   5.9380   5.9509   6.4421   6.5167   7.0196   7.0510
     7.2803   7.3169

          k =-1.0162-0.2579-0.2971 ( 36528 PWs)   bands (ev):

   -44.1384 -44.1384 -22.2609 -22.2609 -22.2441 -22.2441 -22.0582 -22.0582
    -6.6891  -6.6891  -5.9135  -5.9135  -5.7841  -5.7841  -5.4050  -5.4050
    -4.5344  -4.5344  -0.1214  -0.1214   0.8941   0.8941   0.9390   0.9390
     1.5465   1.5465   1.6650   1.6650   2.3762   2.3762   2.7747   2.7747
     2.9247   2.9247   3.1690   3.1690   3.6210   3.6210   3.7929   3.7929
     4.4575   4.4575   5.4386   5.4386   6.4008   6.4008   7.0587   7.0587
     7.3671   7.3671

          k = 0.5081 0.0000 0.0000 ( 36503 PWs)   bands (ev):

   -44.1397 -44.1397 -22.2679 -22.2679 -22.2105 -22.2105 -22.0623 -22.0622
    -7.3060  -6.8899  -6.8359  -6.6376  -6.1588  -5.2548  -5.0858  -4.7124
    -4.6738  -4.4299   0.5707   0.5737   0.6739   1.1868   1.2388   1.4764
     1.6823   1.7432   2.0373   2.1034   2.1223   2.2602   2.3589   3.3128
     3.4325   3.4439   3.5526   3.5977   3.7754   3.8777   3.9553   4.2011
     4.5062   5.1761   5.4892   5.9743   6.0318   6.5283   6.5310   6.9350
     7.4455   7.5769

          k = 0.5081 0.0000 0.1485 ( 36453 PWs)   bands (ev):

   -44.1396 -44.1396 -22.2679 -22.2679 -22.2105 -22.2105 -22.0623 -22.0622
    -7.2723  -7.0284  -6.7378  -6.6465  -6.0613  -5.5021  -4.9009  -4.6981
    -4.6722  -4.4624   0.4956   0.6866   0.7973   1.0498   1.2260   1.4248
     1.4403   1.5814   2.0222   2.0956   2.3399   2.4603   2.7940   3.3392
     3.4131   3.4579   3.4992   3.5893   3.6728   3.8163   3.8391   4.2591
     4.3625   4.5381   6.0831   6.1546   6.2749   6.5214   6.5881   6.7985
     7.2862   7.5032

          k = 0.5081 0.0000-0.2971 ( 36452 PWs)   bands (ev):

   -44.1396 -44.1396 -22.2679 -22.2679 -22.2105 -22.2105 -22.0623 -22.0623
    -7.1749  -7.1749  -6.6754  -6.6754  -5.8142  -5.8142  -4.7658  -4.7658
    -4.5594  -4.5594   0.5777   0.5777   1.0629   1.0629   1.1861   1.1861
     1.3513   1.3513   2.0590   2.0590   2.7269   2.7269   3.1243   3.1243
     3.3787   3.3787   3.5827   3.5827   3.7234   3.7234   3.8252   3.8252
     4.3275   4.3275   6.3423   6.3423   6.5121   6.5121   6.8201   6.8201
     7.1133   7.1133

          k = 0.7622 0.0645 0.0000 ( 36505 PWs)   bands (ev):

   -44.1387 -44.1387 -22.2631 -22.2631 -22.2342 -22.2342 -22.0594 -22.0593
    -6.8892  -6.7269  -6.4001  -6.3614  -5.8427  -5.3377  -5.2433  -5.0826
    -4.5861  -4.5681   0.0077   0.1605   0.6149   1.0842   1.1022   1.2672
     1.4385   1.5593   1.9139   2.0321   2.2517   2.3596   2.4069   2.7461
     2.8238   3.3149   3.3471   3.4269   3.6196   3.6441   3.7523   3.8266
     3.9206   4.6019   5.8247   6.2598   6.2934   6.7507   6.8478   6.8478
     7.2783   7.6042

          k = 0.7622 0.0645 0.1485 ( 36509 PWs)   bands (ev):

   -44.1387 -44.1387 -22.2631 -22.2631 -22.2342 -22.2342 -22.0594 -22.0594
    -6.8680  -6.7530  -6.4007  -6.3783  -5.7662  -5.4300  -5.1980  -5.0996
    -4.5791  -4.5670   0.0601   0.2847   0.4757   0.9511   1.0801   1.2329
     1.4577   1.6422   1.8453   1.9992   2.0652   2.6522   2.6746   2.7929
     2.8607   3.1155   3.3323   3.4018   3.4958   3.6290   3.6710   3.9407
     4.0164   4.6057   5.5714   6.2813   6.6123   6.6721   6.8542   6.9404
     7.0117   7.5494

          k = 0.7622 0.0645-0.2971 ( 36472 PWs)   bands (ev):

   -44.1387 -44.1387 -22.2631 -22.2631 -22.2342 -22.2342 -22.0594 -22.0594
    -6.8132  -6.8132  -6.3967  -6.3967  -5.5990  -5.5990  -5.1427  -5.1427
    -4.5692  -4.5692   0.2281   0.2281   0.6120   0.6120   1.1022   1.1022
     1.5645   1.5645   1.9565   1.9565   2.3374   2.3374   2.8041   2.8041
     2.9846   2.9846   3.4169   3.4169   3.5831   3.5831   3.8283   3.8283
     4.1546   4.1546   6.0887   6.0887   6.4126   6.4126   6.8855   6.8855
     7.3983   7.3983

          k = 1.0162 0.1290 0.0000 ( 36514 PWs)   bands (ev):

   -44.1384 -44.1384 -22.2609 -22.2609 -22.2441 -22.2441 -22.0582 -22.0582
    -6.7006  -6.6806  -5.8866  -5.8762  -5.8152  -5.8059  -5.4165  -5.4157
    -4.5372  -4.5145   0.0262   0.0624   0.3623   0.3929   1.0060   1.0279
     1.4726   1.6627   2.2353   2.3729   2.3745   2.3919   2.7877   2.8070
     2.8345   2.8845   3.2436   3.2523   3.3063   3.4389   3.5772   3.6859
     3.7444   4.0261   6.4531   6.4954   6.5133   6.6055   6.9977   7.0703
     7.0780   7.0803

          k = 1.0162 0.1290 0.1485 ( 36524 PWs)   bands (ev):

   -44.1384 -44.1384 -22.2609 -22.2609 -22.2441 -22.2441 -22.0582 -22.0582
    -6.6970  -6.6827  -5.9037  -5.8956  -5.7980  -5.7922  -5.4109  -5.4103
    -4.5381  -4.5221  -0.0649  -0.0532   0.5921   0.5978   1.0197   1.0350
     1.4691   1.5862   1.9642   2.0265   2.3727   2.3877   2.6797   2.7772
     2.9600   3.0182   3.1158   3.1963   3.5325   3.6065   3.6834   3.7325
     4.0331   4.1367   5.9289   5.9629   6.4391   6.5193   7.0260   7.0498
     7.2857   7.3119

          k = 1.0162 0.1290-0.2971 ( 36516 PWs)   bands (ev):

   -44.1384 -44.1384 -22.2609 -22.2609 -22.2441 -22.2441 -22.0582 -22.0582
    -6.6891  -6.6891  -5.9135  -5.9135  -5.7841  -5.7841  -5.4051  -5.4051
    -4.5344  -4.5344  -0.1216  -0.1216   0.8938   0.8938   0.9400   0.9400
     1.5470   1.5470   1.6659   1.6659   2.3665   2.3665   2.7590   2.7590
     2.9745   2.9745   3.1422   3.1422   3.6258   3.6258   3.7875   3.7875
     4.4579   4.4579   5.4408   5.4408   6.4003   6.4003   7.0607   7.0607
     7.3674   7.3674

          k =-0.7622-0.3224 0.0000 ( 36511 PWs)   bands (ev):

   -44.1387 -44.1387 -22.2631 -22.2631 -22.2342 -22.2342 -22.0594 -22.0593
    -6.8659  -6.7331  -6.4212  -6.3568  -5.8438  -5.3470  -5.2415  -5.0839
    -4.6010  -4.5506   0.0196   0.1346   0.5680   1.0408   1.1135   1.2348
     1.5011   1.6639   1.9921   1.9948   2.3030   2.4381   2.4509   2.8096
     2.8515   3.1926   3.3015   3.4190   3.5857   3.6602   3.7112   3.8291
     3.8627   4.5000   5.8299   6.2410   6.3633   6.7082   6.8259   6.9567
     7.2241   7.5861

          k =-0.7622-0.3224 0.1485 ( 36492 PWs)   bands (ev):

   -44.1387 -44.1387 -22.2631 -22.2631 -22.2342 -22.2342 -22.0594 -22.0594
    -6.8469  -6.7518  -6.4214  -6.3825  -5.7648  -5.4311  -5.2025  -5.1018
    -4.5893  -4.5547   0.0569   0.2769   0.4521   0.9204   1.0783   1.1959
     1.5344   1.6407   1.7997   2.1775   2.2265   2.6143   2.7011   2.8368
     2.8926   3.1328   3.1947   3.3753   3.4786   3.6165   3.6701   3.8839
     3.9247   4.6087   5.5105   6.3313   6.5795   6.6777   6.8150   6.9798
     7.0627   7.4959

          k =-0.7622-0.3224-0.2971 ( 36508 PWs)   bands (ev):

   -44.1387 -44.1387 -22.2631 -22.2631 -22.2342 -22.2342 -22.0594 -22.0594
    -6.7994  -6.7994  -6.4130  -6.4130  -5.5965  -5.5965  -5.1472  -5.1472
    -4.5684  -4.5684   0.2141   0.2141   0.6255   0.6255   1.0500   1.0500
     1.5787   1.5787   2.0594   2.0594   2.4310   2.4310   2.8086   2.8086
     3.0082   3.0082   3.2658   3.2658   3.5870   3.5870   3.8447   3.8447
     4.1066   4.1066   6.0311   6.0311   6.4086   6.4086   6.9749   6.9749
     7.3253   7.3253

          k =-0.5081-0.2579 0.0000 ( 36480 PWs)   bands (ev):

   -44.1397 -44.1396 -22.2679 -22.2679 -22.2105 -22.2105 -22.0623 -22.0622
    -7.2884  -6.8856  -6.8329  -6.6564  -6.1725  -5.2531  -5.0966  -4.7248
    -4.6573  -4.4314   0.5533   0.5698   0.6869   1.2552   1.2954   1.5509
     1.6793   1.7314   2.0442   2.0867   2.2136   2.2709   2.3674   3.3596
     3.3739   3.4093   3.5106   3.5229   3.7420   3.8300   3.9042   4.0892
     4.4954   5.1805   5.4718   5.9043   6.0548   6.6670   6.7026   6.8150
     7.3632   7.5417

          k =-0.5081-0.2579 0.1485 ( 36485 PWs)   bands (ev):

   -44.1397 -44.1396 -22.2679 -22.2679 -22.2105 -22.2105 -22.0623 -22.0622
    -7.2550  -7.0159  -6.7480  -6.6654  -6.0692  -5.5011  -4.9182  -4.6927
    -4.6717  -4.4593   0.4953   0.7005   0.7863   1.0436   1.3055   1.4108
     1.5455   1.6284   2.0303   2.0781   2.3148   2.5585   2.8135   3.3262
     3.3772   3.4142   3.5117   3.5385   3.6361   3.7088   3.8345   4.1454
     4.3066   4.5470   6.0717   6.1289   6.2370   6.6737   6.7011   6.7251
     7.2019   7.4835

          k =-0.5081-0.2579-0.2971 ( 36478 PWs)   bands (ev):

   -44.1397 -44.1397 -22.2679 -22.2679 -22.2105 -22.2105 -22.0623 -22.0623
    -7.1589  -7.1589  -6.6933  -6.6933  -5.8152  -5.8152  -4.7794  -4.7794
    -4.5502  -4.5502   0.5893   0.5893   1.0623   1.0623   1.1452   1.1452
     1.4891   1.4891   2.0519   2.0519   2.7610   2.7610   3.1744   3.1744
     3.3780   3.3780   3.4533   3.4533   3.6869   3.6869   3.8131   3.8131
     4.2511   4.2511   6.2888   6.2888   6.6236   6.6236   6.7697   6.7697
     7.1147   7.1147

          k =-0.2541-0.1934 0.0000 ( 36410 PWs)   bands (ev):

   -44.1406 -44.1406 -22.2726 -22.2726 -22.1868 -22.1868 -22.0652 -22.0651
    -7.6187  -7.1457  -7.0585  -6.7810  -6.3716  -5.3408  -5.0310  -4.8349
    -4.7627  -3.9973   0.5066   0.8934   0.9355   1.2388   1.3826   1.3870
     1.9171   1.9580   2.1592   2.5146   2.5692   3.1587   3.3341   3.6174
     3.6500   3.7149   3.7612   3.8562   3.8866   4.2074   4.2118   4.2393
     4.4025   4.6227   5.8110   6.0035   6.3043   6.6008   6.6177   6.8271
     6.9938   7.0754

          k =-0.2541-0.1934 0.1485 ( 36427 PWs)   bands (ev):

   -44.1406 -44.1406 -22.2726 -22.2726 -22.1868 -22.1868 -22.0652 -22.0651
    -7.5818  -7.3073  -6.9268  -6.7931  -6.2738  -5.6338  -4.8737  -4.7794
    -4.6858  -4.0899   0.5465   0.9418   0.9795   1.0309   1.1944   1.5423
     1.8264   2.2603   2.3734   2.5170   2.5432   2.9198   3.3136   3.3614
     3.5860   3.6359   3.7527   3.8941   3.9746   4.1017   4.2341   4.2579
     4.6751   4.9301   5.8057   5.8989   6.1777   6.3323   6.5226   6.7129
     7.1987   7.2983

          k =-0.2541-0.1934-0.2971 ( 36422 PWs)   bands (ev):

   -44.1406 -44.1406 -22.2726 -22.2726 -22.1868 -22.1868 -22.0652 -22.0652
    -7.4739  -7.4739  -6.8345  -6.8345  -6.0023  -6.0023  -4.8201  -4.8201
    -4.3434  -4.3434   0.7003   0.7003   1.0670   1.0670   1.2344   1.2344
     2.2666   2.2666   2.4807   2.4807   2.6757   2.6757   3.1681   3.1681
     3.5671   3.5671   3.8109   3.8109   4.0587   4.0587   4.2576   4.2576
     5.1056   5.1056   5.7217   5.7217   6.1179   6.1179   6.5331   6.5331
     7.4057   7.4057

          k = 0.0000-0.1290 0.0000 ( 36417 PWs)   bands (ev):

   -44.1409 -44.1409 -22.2746 -22.2745 -22.1770 -22.1770 -22.0664 -22.0663
    -7.7383  -7.2543  -7.1363  -6.8233  -6.4280  -5.3824  -5.0250  -4.8750
    -4.8089  -3.8524   0.4135   0.7583   0.7739   1.1007   1.5325   1.5409
     2.3765   2.3998   2.6971   2.8190   2.9806   3.0202   3.2192   3.4458
     3.5727   3.7027   3.8088   4.0141   4.1857   4.2675   4.2802   4.6478
     4.9551   5.4938   5.6407   5.7385   5.8555   6.0320   6.3245   6.8127
     6.9570   7.2522

          k = 0.0000-0.1290 0.1485 ( 36419 PWs)   bands (ev):

   -44.1409 -44.1409 -22.2746 -22.2745 -22.1770 -22.1770 -22.0664 -22.0663
    -7.7004  -7.4174  -6.9942  -6.8369  -6.3366  -5.6885  -4.8888  -4.8219
    -4.6807  -3.9689   0.4674   0.8113   0.9181   1.0343   1.0823   1.9679
     2.1038   2.4053   2.6068   2.8819   2.9715   3.1349   3.3425   3.3829
     3.6709   3.7792   3.8023   3.9880   4.1283   4.2899   4.2993   4.6558
     4.8299   5.0185   5.7775   5.9690   6.0037   6.0304   6.6093   6.6409
     6.7845   7.2186

          k = 0.0000-0.1290-0.2971 ( 36464 PWs)   bands (ev):

   -44.1409 -44.1409 -22.2746 -22.2746 -22.1770 -22.1770 -22.0664 -22.0664
    -7.5895  -7.5895  -6.8849  -6.8849  -6.0682  -6.0682  -4.8530  -4.8530
    -4.2765  -4.2765   0.6732   0.6732   0.9158   0.9158   1.4001   1.4001
     2.4877   2.4877   2.6811   2.6811   2.9413   2.9413   3.4174   3.4174
     3.8193   3.8193   3.9616   3.9616   4.2456   4.2456   4.4181   4.4181
     4.6999   4.6999   5.9563   5.9563   6.2436   6.2436   6.3950   6.3950
     7.0793   7.0793

          k = 1.0162 0.0000 0.0000 ( 36499 PWs)   bands (ev):

   -44.1384 -44.1384 -22.2609 -22.2609 -22.2441 -22.2441 -22.0582 -22.0582
    -6.7006  -6.6806  -5.8863  -5.8765  -5.8152  -5.8059  -5.4166  -5.4157
    -4.5372  -4.5145   0.0218   0.0669   0.3587   0.3967   1.0029   1.0324
     1.4788   1.6531   2.2362   2.3627   2.3723   2.3951   2.7856   2.8041
     2.8481   2.8953   3.2422   3.2708   3.2841   3.4257   3.6152   3.6739
     3.7164   4.0375   6.4476   6.5017   6.5089   6.6111   7.0187   7.0628
     7.0721   7.0824

          k = 1.0162 0.0000 0.1485 ( 36485 PWs)   bands (ev):

   -44.1384 -44.1384 -22.2609 -22.2609 -22.2441 -22.2441 -22.0582 -22.0582
    -6.6970  -6.6827  -5.9035  -5.8958  -5.7980  -5.7923  -5.4110  -5.4102
    -4.5381  -4.5221  -0.0665  -0.0520   0.5929   0.5976   1.0268   1.0286
     1.4745   1.5813   1.9918   1.9947   2.3723   2.3801   2.6650   2.7955
     2.9810   3.0581   3.0687   3.1929   3.5251   3.6343   3.6807   3.7089
     4.0218   4.1511   5.9241   5.9705   6.4364   6.5217   7.0344   7.0466
     7.2964   7.3015

          k = 1.0162 0.0000-0.2971 ( 36514 PWs)   bands (ev):

   -44.1384 -44.1384 -22.2609 -22.2609 -22.2441 -22.2441 -22.0582 -22.0582
    -6.6891  -6.6891  -5.9135  -5.9135  -5.7841  -5.7841  -5.4051  -5.4051
    -4.5344  -4.5344  -0.1217  -0.1217   0.8935   0.8935   0.9410   0.9410
     1.5475   1.5475   1.6668   1.6668   2.3572   2.3572   2.7480   2.7480
     3.0498   3.0498   3.0849   3.0849   3.6307   3.6307   3.7820   3.7820
     4.4584   4.4584   5.4429   5.4429   6.3998   6.3998   7.0626   7.0626
     7.3677   7.3677

          k = 1.2703 0.0645 0.0000 ( 36468 PWs)   bands (ev):

   -44.1387 -44.1387 -22.2631 -22.2631 -22.2342 -22.2342 -22.0594 -22.0593
    -6.8546  -6.7373  -6.4300  -6.3549  -5.8443  -5.3508  -5.2407  -5.0845
    -4.6044  -4.5462   0.0247   0.1243   0.5495   1.0266   1.1255   1.2223
     1.5056   1.7099   1.9813   2.0438   2.3467   2.4335   2.4695   2.8370
     2.8570   3.1335   3.3208   3.4741   3.5331   3.5626   3.7134   3.8194
     3.9031   4.4444   5.8322   6.2380   6.3978   6.6495   6.8612   7.0139
     7.1886   7.5893

          k = 1.2703 0.0645 0.1485 ( 36490 PWs)   bands (ev):

   -44.1387 -44.1387 -22.2631 -22.2631 -22.2342 -22.2342 -22.0594 -22.0594
    -6.8367  -6.7524  -6.4301  -6.3845  -5.7642  -5.4316  -5.2043  -5.1027
    -4.5916  -4.5515   0.0547   0.2754   0.4414   0.9073   1.0863   1.1810
     1.5619   1.6376   1.7918   2.2548   2.2963   2.5995   2.7015   2.8480
     2.9053   3.1327   3.1711   3.3699   3.4364   3.5683   3.7474   3.8224
     3.8933   4.6085   5.4874   6.3581   6.5496   6.6783   6.8055   7.0210
     7.0777   7.4653

          k = 1.2703 0.0645-0.2971 ( 36480 PWs)   bands (ev):

   -44.1387 -44.1387 -22.2631 -22.2631 -22.2342 -22.2342 -22.0594 -22.0594
    -6.7934  -6.7934  -6.4201  -6.4201  -5.5954  -5.5954  -5.1490  -5.1490
    -4.5681  -4.5681   0.2082   0.2082   0.6309   0.6309   1.0334   1.0334
     1.5840   1.5840   2.0866   2.0866   2.4925   2.4925   2.8178   2.8178
     3.0155   3.0155   3.1949   3.1949   3.5872   3.5872   3.8377   3.8377
     4.0943   4.0943   6.0096   6.0096   6.4059   6.4059   7.0243   7.0243
     7.2835   7.2835

          k =-0.5081-0.3869 0.0000 ( 36463 PWs)   bands (ev):

   -44.1397 -44.1396 -22.2679 -22.2679 -22.2105 -22.2105 -22.0623 -22.0622
    -7.2750  -6.8840  -6.8307  -6.6689  -6.1827  -5.2518  -5.1043  -4.7294
    -4.6498  -4.4325   0.5397   0.5765   0.6814   1.2658   1.4166   1.5921
     1.6695   1.7269   2.0310   2.1268   2.2387   2.2793   2.3666   3.2549
     3.3852   3.4215   3.4388   3.5644   3.7017   3.8028   3.8168   4.0822
     4.4835   5.1783   5.4626   5.8140   6.1183   6.7298   6.7795   6.8225
     7.2798   7.5345

          k =-0.5081-0.3869 0.1485 ( 36477 PWs)   bands (ev):

   -44.1397 -44.1396 -22.2679 -22.2679 -22.2105 -22.2105 -22.0623 -22.0622
    -7.2419  -7.0067  -6.7567  -6.6786  -6.0747  -5.5003  -4.9297  -4.6907
    -4.6702  -4.4571   0.4958   0.7079   0.7754   1.0399   1.3757   1.4129
     1.5988   1.6860   2.0289   2.0751   2.3063   2.6007   2.8296   3.2160
     3.3796   3.4157   3.4548   3.5442   3.6363   3.6995   3.7831   4.1120
     4.2444   4.5515   6.0181   6.1454   6.2249   6.6191   6.7870   6.8475
     7.1244   7.4833

          k =-0.5081-0.3869-0.2971 ( 36492 PWs)   bands (ev):

   -44.1397 -44.1397 -22.2679 -22.2679 -22.2105 -22.2105 -22.0623 -22.0623
    -7.1468  -7.1468  -6.7068  -6.7068  -5.8158  -5.8158  -4.7884  -4.7884
    -4.5442  -4.5442   0.5968   0.5968   1.0612   1.0612   1.1278   1.1278
     1.5948   1.5948   2.0375   2.0375   2.7927   2.7927   3.1719   3.1719
     3.3331   3.3331   3.4176   3.4176   3.6837   3.6837   3.7972   3.7972
     4.1977   4.1977   6.2525   6.2525   6.6579   6.6579   6.7675   6.7675
     7.1314   7.1314

          k =-0.2541-0.3224 0.0000 ( 36485 PWs)   bands (ev):

   -44.1406 -44.1406 -22.2726 -22.2726 -22.1868 -22.1868 -22.0652 -22.0651
    -7.6058  -7.1435  -7.0488  -6.7943  -6.3928  -5.3411  -5.0420  -4.8400
    -4.7529  -3.9987   0.5326   0.9062   1.0592   1.2877   1.3776   1.4588
     1.9538   1.9918   2.1599   2.4378   2.5227   3.2552   3.2714   3.4377
     3.6018   3.6216   3.7406   3.8544   3.8887   4.1149   4.1617   4.2065
     4.3782   4.5906   5.8945   6.0244   6.3565   6.5777   6.7029   6.8438
     6.9246   7.0138

          k =-0.2541-0.3224 0.1485 ( 36445 PWs)   bands (ev):

   -44.1406 -44.1406 -22.2726 -22.2726 -22.1868 -22.1868 -22.0652 -22.0651
    -7.5690  -7.2974  -6.9304  -6.8065  -6.2881  -5.6347  -4.8948  -4.7748
    -4.6773  -4.0897   0.5677   0.9632   1.0083   1.1531   1.2711   1.5662
     1.8387   2.2626   2.4038   2.4457   2.5172   2.8990   3.3532   3.3783
     3.4281   3.5371   3.6973   3.8834   3.9118   4.0711   4.1503   4.2067
     4.6938   4.9002   5.7898   5.9293   6.1719   6.3469   6.6219   6.7307
     7.1515   7.2831

          k =-0.2541-0.3224-0.2971 ( 36442 PWs)   bands (ev):

   -44.1406 -44.1406 -22.2726 -22.2726 -22.1868 -22.1868 -22.0652 -22.0652
    -7.4619  -7.4619  -6.8464  -6.8464  -6.0071  -6.0071  -4.8278  -4.8278
    -4.3397  -4.3397   0.7139   0.7139   1.1918   1.1918   1.2460   1.2460
     2.2689   2.2689   2.4435   2.4435   2.6699   2.6699   3.2099   3.2099
     3.4080   3.4080   3.7930   3.7930   4.0268   4.0268   4.1880   4.1880
     5.1151   5.1151   5.6779   5.6779   6.0972   6.0972   6.6376   6.6376
     7.3764   7.3764

          k = 0.0000-0.2579 0.0000 ( 36445 PWs)   bands (ev):

   -44.1409 -44.1409 -22.2746 -22.2745 -22.1770 -22.1770 -22.0664 -22.0663
    -7.7268  -7.2523  -7.1247  -6.8360  -6.4504  -5.3837  -5.0358  -4.8822
    -4.7972  -3.8539   0.4543   0.7708   0.8870   1.1464   1.5579   1.5989
     2.3817   2.4030   2.7150   2.8159   2.9761   3.0466   3.3074   3.3215
     3.3634   3.6712   3.6760   3.9689   4.1318   4.1509   4.1857   4.6485
     4.9322   5.4376   5.7054   5.7564   5.8972   6.1021   6.4170   6.7483
     6.9577   7.2093

          k = 0.0000-0.2579 0.1485 ( 36452 PWs)   bands (ev):

   -44.1409 -44.1409 -22.2746 -22.2746 -22.1770 -22.1770 -22.0664 -22.0663
    -7.6891  -7.4086  -6.9948  -6.8493  -6.3527  -5.6902  -4.9099  -4.8160
    -4.6733  -3.9690   0.5016   0.9130   0.9524   1.0829   1.1198   1.9870
     2.1411   2.4111   2.6175   2.8833   2.9680   3.1361   3.2546   3.3052
     3.6281   3.6580   3.7555   3.9181   4.1229   4.1645   4.1837   4.6562
     4.8173   5.0047   5.8094   5.9798   6.0412   6.0708   6.5771   6.6911
     6.7866   7.1840

          k = 0.0000-0.2579-0.2971 ( 36454 PWs)   bands (ev):

   -44.1409 -44.1409 -22.2746 -22.2746 -22.1770 -22.1770 -22.0664 -22.0664
    -7.5788  -7.5788  -6.8947  -6.8947  -6.0746  -6.0746  -4.8596  -4.8596
    -4.2736  -4.2736   0.7062   0.7062   1.0036   1.0036   1.4205   1.4205
     2.4950   2.4950   2.7027   2.7027   2.9406   2.9406   3.2842   3.2842
     3.7717   3.7717   3.9456   3.9456   4.1073   4.1073   4.4071   4.4071
     4.6974   4.6974   5.9487   5.9487   6.2834   6.2834   6.4003   6.4003
     7.0654   7.0654

          k = 1.5243 0.0000 0.0000 ( 36439 PWs)   bands (ev):

   -44.1397 -44.1396 -22.2679 -22.2679 -22.2105 -22.2105 -22.0623 -22.0622
    -7.2691  -6.8838  -6.8299  -6.6737  -6.1870  -5.2512  -5.1075  -4.7308
    -4.6472  -4.4329   0.5343   0.5814   0.6753   1.2699   1.5115   1.5834
     1.6460   1.7250   2.0423   2.1455   2.2475   2.2722   2.3638   3.2070
     3.3688   3.3966   3.4506   3.6571   3.6920   3.6938   3.7940   4.0986
     4.4780   5.1754   5.4593   5.7766   6.1472   6.6936   6.8363   6.8725
     7.2330   7.5648

          k = 1.5243 0.0000 0.1485 ( 36476 PWs)   bands (ev):

   -44.1397 -44.1397 -22.2679 -22.2679 -22.2105 -22.2105 -22.0623 -22.0622
    -7.2361  -7.0028  -6.7606  -6.6840  -6.0770  -5.4999  -4.9343  -4.6903
    -4.6692  -4.4562   0.4961   0.7111   0.7693   1.0386   1.4074   1.4166
     1.6164   1.7168   2.0374   2.0665   2.3031   2.6092   2.8389   3.1690
     3.3387   3.4263   3.4384   3.6069   3.6387   3.6971   3.7103   4.1345
     4.1960   4.5533   5.9912   6.1559   6.2221   6.5896   6.8303   6.9134
     7.0760   7.4950

          k = 1.5243 0.0000-0.2971 ( 36508 PWs)   bands (ev):

   -44.1397 -44.1397 -22.2679 -22.2679 -22.2105 -22.2105 -22.0623 -22.0623
    -7.1415  -7.1415  -6.7126  -6.7126  -5.8160  -5.8160  -4.7921  -4.7921
    -4.5418  -4.5418   0.5998   0.5998   1.0606   1.0606   1.1217   1.1217
     1.6460   1.6460   2.0261   2.0261   2.8090   2.8090   3.1377   3.1377
     3.3326   3.3326   3.4164   3.4164   3.6794   3.6794   3.7895   3.7895
     4.1766   4.1766   6.2379   6.2379   6.6531   6.6531   6.7814   6.7814
     7.1445   7.1445

          k =-0.2541-0.4514 0.0000 ( 36444 PWs)   bands (ev):

   -44.1406 -44.1406 -22.2726 -22.2726 -22.1868 -22.1868 -22.0652 -22.0651
    -7.5963  -7.1420  -7.0425  -6.8026  -6.4086  -5.3413  -5.0501  -4.8413
    -4.7481  -3.9998   0.5423   0.9162   1.1753   1.3147   1.3723   1.5460
     1.9923   2.0179   2.1553   2.3517   2.4472   3.1926   3.3035   3.3686
     3.5539   3.6203   3.7588   3.8084   3.8489   4.0782   4.1343   4.1615
     4.3914   4.5604   5.9637   6.0346   6.3813   6.5568   6.7632   6.8453
     6.8528   6.9987

          k =-0.2541-0.4514 0.1485 ( 36461 PWs)   bands (ev):

   -44.1406 -44.1406 -22.2726 -22.2726 -22.1868 -22.1868 -22.0652 -22.0651
    -7.5596  -7.2903  -6.9339  -6.8156  -6.2983  -5.6352  -4.9080  -4.7729
    -4.6719  -4.0896   0.5746   0.9772   1.0172   1.2871   1.3380   1.5884
     1.8588   2.2596   2.3602   2.4147   2.4741   2.8906   3.2845   3.3042
     3.4112   3.5546   3.7365   3.8504   3.8607   3.9762   4.1459   4.1718
     4.7270   4.8650   5.7814   5.9529   6.1788   6.3178   6.6897   6.7419
     7.1288   7.2707

          k =-0.2541-0.4514-0.2971 ( 36490 PWs)   bands (ev):

   -44.1406 -44.1406 -22.2726 -22.2726 -22.1868 -22.1868 -22.0652 -22.0652
    -7.4531  -7.4531  -6.8553  -6.8553  -6.0104  -6.0104  -4.8332  -4.8332
    -4.3371  -4.3371   0.7176   0.7176   1.2533   1.2533   1.3125   1.3125
     2.2723   2.2723   2.3826   2.3826   2.6665   2.6665   3.2245   3.2245
     3.3067   3.3067   3.8048   3.8048   3.9870   3.9870   4.1528   4.1528
     5.1233   5.1233   5.6516   5.6516   6.0754   6.0754   6.7004   6.7004
     7.3586   7.3586

          k = 0.0000-0.3869 0.0000 ( 36477 PWs)   bands (ev):

   -44.1409 -44.1409 -22.2746 -22.2746 -22.1770 -22.1770 -22.0664 -22.0663
    -7.7149  -7.2504  -7.1135  -6.8473  -6.4742  -5.3848  -5.0474  -4.8840
    -4.7901  -3.8554   0.4778   0.7840   1.0418   1.2093   1.5817   1.6659
     2.3871   2.4065   2.7341   2.8129   2.9709   3.0643   3.0865   3.0898
     3.4672   3.6488   3.6652   3.9495   3.9539   4.0143   4.1856   4.6494
     4.9096   5.4062   5.7744   5.7762   5.9455   6.1442   6.4802   6.6520
     6.9583   7.1843

          k = 0.0000-0.3869 0.1485 ( 36452 PWs)   bands (ev):

   -44.1409 -44.1409 -22.2746 -22.2746 -22.1770 -22.1770 -22.0664 -22.0663
    -7.6773  -7.3996  -6.9964  -6.8610  -6.3692  -5.6919  -4.9278  -4.8126
    -4.6666  -3.9691   0.5175   0.9798   1.0126   1.1584   1.2099   2.0092
     2.1764   2.4169   2.6283   2.8856   2.9642   2.9767   3.0345   3.3199
     3.5877   3.6713   3.7315   3.9102   4.0221   4.0587   4.1172   4.6569
     4.8049   4.9995   5.8510   5.9911   6.0722   6.0823   6.5289   6.7207
     6.7887   7.1537

          k = 0.0000-0.3869-0.2971 ( 36454 PWs)   bands (ev):

   -44.1409 -44.1409 -22.2746 -22.2746 -22.1770 -22.1770 -22.0664 -22.0664
    -7.5677  -7.5677  -6.9049  -6.9049  -6.0807  -6.0807  -4.8663  -4.8663
    -4.2708  -4.2708   0.7159   0.7159   1.1425   1.1425   1.4422   1.4422
     2.5024   2.5024   2.6966   2.6966   2.9400   2.9400   3.0904   3.0904
     3.7957   3.7957   3.9293   3.9293   3.9903   3.9903   4.3909   4.3909
     4.6951   4.6951   5.9311   5.9311   6.3115   6.3115   6.4058   6.4058
     7.0394   7.0394

          k =-2.0325 0.0000 0.0000 ( 36452 PWs)   bands (ev):

   -44.1409 -44.1409 -22.2746 -22.2746 -22.1770 -22.1770 -22.0664 -22.0663
    -7.7098  -7.2496  -7.1091  -6.8514  -6.4845  -5.3853  -5.0523  -4.8837
    -4.7879  -3.8560   0.4827   0.7897   1.1571   1.1999   1.5911   1.7076
     2.3893   2.4083   2.7425   2.8117   2.9228   2.9685   2.9798   3.1141
     3.5771   3.6373   3.6802   3.8233   3.9472   3.9541   4.1855   4.6499
     4.9004   5.3971   5.7819   5.8070   5.9706   6.1570   6.5001   6.6014
     6.9585   7.1775

          k =-2.0325 0.0000 0.1485 ( 36456 PWs)   bands (ev):

   -44.1409 -44.1409 -22.2746 -22.2746 -22.1770 -22.1770 -22.0664 -22.0663
    -7.6723  -7.3958  -6.9974  -6.8656  -6.3761  -5.6925  -4.9347  -4.8116
    -4.6641  -3.9692   0.5197   0.9907   1.0423   1.2049   1.2719   2.0191
     2.1921   2.4193   2.6328   2.8663   2.8869   2.9195   2.9624   3.3631
     3.5675   3.7192   3.7213   3.8957   3.9523   4.0072   4.1148   4.6572
     4.7998   4.9987   5.8730   5.9959   6.0781   6.0846   6.5048   6.7278
     6.7896   7.1431

          k =-2.0325 0.0000-0.2971 ( 36460 PWs)   bands (ev):

   -44.1409 -44.1409 -22.2746 -22.2746 -22.1770 -22.1770 -22.0664 -22.0664
    -7.5630  -7.5630  -6.9094  -6.9094  -6.0832  -6.0832  -4.8691  -4.8691
    -4.2696  -4.2696   0.7161   0.7161   1.2169   1.2169   1.4518   1.4518
     2.5056   2.5056   2.6650   2.6650   2.9398   2.9398   3.0215   3.0215
     3.8204   3.8204   3.9225   3.9225   3.9372   3.9372   4.3847   4.3847
     4.6942   4.6942   5.9215   5.9215   6.3205   6.3205   6.4082   6.4082
     7.0270   7.0270

     the Fermi energy is     5.4312 ev

!    total energy              =   -4240.95043523 Ry

     total all-electron energy =   -150287.644130 Ry
     estimated scf accuracy    <          3.5E-11 Ry
     smearing contrib. (-TS)   =      -0.00001905 Ry
     internal energy E=F+TS    =   -4240.95041619 Ry

     The total energy is F=E-TS. E is the sum of the following terms:
     one-electron contribution =    -166.07757449 Ry
     hartree contribution      =     116.51718002 Ry
     xc contribution           =    -201.45991450 Ry
     ewald contribution        =    -222.41587759 Ry
     one-center paw contrib.   =   -3767.51422964 Ry

     convergence has been achieved in  19 iterations

     Forces acting on atoms (cartesian axes, Ry/au):

     atom    1 type  1   force =     0.00000000   -0.00868394    0.00000000
     atom    2 type  1   force =     0.00000000    0.00868394    0.00000000
     atom    3 type  2   force =     0.00000000    0.00025647    0.00000000
     atom    4 type  2   force =     0.00000000   -0.00025647    0.00000000
     atom    5 type  2   force =    -0.00000000    0.00185855    0.00052121
     atom    6 type  2   force =    -0.00000000   -0.00185855   -0.00052121
     atom    7 type  2   force =     0.00000000    0.00185855   -0.00052121
     atom    8 type  2   force =     0.00000000   -0.00185855    0.00052121
     atom    9 type  2   force =     0.00000000    0.01098666    0.01054137
     atom   10 type  2   force =     0.00000000   -0.01098666   -0.01054137
     atom   11 type  2   force =     0.00000000    0.01098666   -0.01054137
     atom   12 type  2   force =     0.00000000   -0.01098666    0.01054137

     Total force =     0.033063     Total SCF correction =     0.000008


     Computing stress (Cartesian axis) and pressure

          total   stress  (Ry/bohr**3)                   (kbar)     P=       -2.62
  -0.00001481   0.00000000   0.00000000           -2.18        0.00        0.00
   0.00000000  -0.00001575   0.00000000            0.00       -2.32        0.00
   0.00000000   0.00000000  -0.00002286            0.00        0.00       -3.36

 
     init_run     :     19.03s CPU     19.53s WALL (       1 calls)
     electrons    :   1010.48s CPU   1021.35s WALL (       1 calls)
     forces       :      6.52s CPU      6.74s WALL (       1 calls)
     stress       :     40.27s CPU     40.86s WALL (       1 calls)

     Called by init_run:
     wfcinit      :     14.58s CPU     14.77s WALL (       1 calls)
     potinit      :      1.42s CPU      1.48s WALL (       1 calls)
     hinit0       :      1.67s CPU      1.71s WALL (       1 calls)

     Called by electrons:
     c_bands      :    847.78s CPU    851.13s WALL (      20 calls)
     sum_band     :    135.57s CPU    139.51s WALL (      20 calls)
     v_of_rho     :      5.89s CPU      6.16s WALL (      20 calls)
     newd         :     14.91s CPU     18.43s WALL (      20 calls)
     PAW_pot      :      6.28s CPU      6.29s WALL (      20 calls)
     mix_rho      :      0.91s CPU      0.92s WALL (      20 calls)

     Called by c_bands:
     init_us_2    :     11.86s CPU     11.89s WALL (    2709 calls)
     cegterg      :    765.95s CPU    769.11s WALL (    1260 calls)

     Called by *egterg:
     cdiaghg      :     29.66s CPU     29.74s WALL (    8918 calls)
     h_psi        :    584.05s CPU    587.00s WALL (    9044 calls)
     s_psi        :     48.00s CPU     48.08s WALL (    9044 calls)
     g_psi        :      2.13s CPU      2.15s WALL (    7721 calls)

     Called by h_psi:
     h_psi:calbec :     42.20s CPU     42.29s WALL (    9044 calls)
     vloc_psi     :    490.82s CPU    493.50s WALL (    9044 calls)
     add_vuspsi   :     47.73s CPU     47.81s WALL (    9044 calls)

     General routines
     calbec       :     55.20s CPU     55.33s WALL (   10619 calls)
     fft          :      3.55s CPU      3.68s WALL (     284 calls)
     ffts         :      0.10s CPU      0.10s WALL (      40 calls)
     fftw         :    455.13s CPU    457.55s WALL (  462412 calls)
     interpolate  :      0.33s CPU      0.34s WALL (      20 calls)
 
     Parallel routines
 
     PWSCF        :  17m56.53s CPU  18m 8.76s WALL

 
   This run was terminated on:  15:35:47  19Nov2021            

=------------------------------------------------------------------------------=
   JOB DONE.
=------------------------------------------------------------------------------=
